LAMMPS data file -- atom_style full -- generated by chemfiles

3936 atoms

1 atom types

-26.493052 123.506948 xlo xhi
-24.6609995 125.3390005 ylo yhi
-50 50 zlo zhi

Masses

1 12.011 # C

Atoms # atomic

1 1 0.3315114534620785 0.7488596531217816 0.0 # C
2 1 -0.8582819149936737 1.4420148573924525 0.0 # C
3 1 -0.7934936858118512 2.8170496917844736 0.0 # C
4 1 0.4206501684436077 3.5346798022339323 0.0 # C
5 1 2.820784253345441 0.7598444112039586 0.0 # C
6 1 1.5830089368900462 1.3919504855104563 0.0 # C
7 1 1.623662340519599 2.808115235458083 0.0 # C
8 1 2.8600493834910834 3.493828868583049 0.0 # C
9 1 5.288980156412977 0.7548818200700447 0.0 # C
10 1 4.0589089489564225 1.3915620024169155 0.0 # C
11 1 4.079005110791891 2.798624314237821 0.0 # C
12 1 5.30900380985734 3.4874752932711997 0.0 # C
13 1 7.746003237341539 0.7526447340858751 0.0 # C
14 1 6.519808807601037 1.391808588116676 0.0 # C
15 1 6.530647915301711 2.797345205878532 0.0 # C
16 1 7.756952332981316 3.4870424838142142 0.0 # C
17 1 10.195720929363693 0.7523095393313914 0.0 # C
18 1 8.972188998620549 1.3937443159987937 0.0 # C
19 1 8.978463516254237 2.7982033935351462 0.0 # C
20 1 10.201910508995832 3.488803268247821 0.0 # C
21 1 12.640583457298995 0.7528553893428125 0.0 # C
22 1 11.418791876393238 1.3962004701493194 0.0 # C
23 1 11.422642109548981 2.8000011049039415 0.0 # C
24 1 12.643716606483899 3.4917561114702824 0.0 # C
25 1 15.081831178042094 0.7548016506955814 0.0 # C
26 1 13.861181581038375 1.399109232319829 0.0 # C
27 1 13.86350471639769 2.8025044254542477 0.0 # C
28 1 15.082660570419566 3.4955223358604184 0.0 # C
29 1 17.519905397022853 0.7575204671053066 0.0 # C
30 1 16.300477134378546 1.4031153214792502 0.0 # C
31 1 16.30176255661058 2.806118968399884 0.0 # C
32 1 17.519620501068466 3.4997668995911124 0.0 # C
33 1 19.955498777007666 0.7601886317927081 0.0 # C
34 1 18.73716821478038 1.4070320941219396 0.0 # C
35 1 18.73784820850588 2.809658060943603 0.0 # C
36 1 19.95480694828975 3.5035735881252137 0.0 # C
37 1 22.38927747538527 0.7622815820763834 0.0 # C
38 1 21.171923140791478 1.4103488098104002 0.0 # C
39 1 21.17230912292954 2.812753511106773 0.0 # C
40 1 22.388575765269117 3.5068811945625846 0.0 # C
41 1 24.821746126777406 0.7640477616198652 0.0 # C
42 1 23.605136428011903 1.4129881807075102 0.0 # C
43 1 23.605345996500187 2.8152375066607873 0.0 # C
44 1 24.821104636908245 3.5094869794603696 0.0 # C
45 1 27.25329564795358 0.7654013007292595 0.0 # C
46 1 26.037248684852944 1.4151002231669267 0.0 # C
47 1 26.037321686139126 2.817242558881265 0.0 # C
48 1 27.252712478190528 3.5115968155793382 0.0 # C
49 1 29.684235740074197 0.7666781914575461 0.0 # C
50 1 28.468448153478402 1.4167599028400821 0.0 # C
51 1 28.468474584077786 2.8188400865684007 0.0 # C
52 1 29.683380331361654 3.513607005157165 0.0 # C
53 1 32.114464104750965 0.7683423620552139 0.0 # C
54 1 30.89893533424242 1.4186384307903999 0.0 # C
55 1 30.898851306882044 2.820634608061847 0.0 # C
56 1 32.11346904416426 3.5156187142561017 0.0 # C
57 1 34.5440210355999 0.7698105666119258 0.0 # C
58 1 33.32890410123835 1.4205761414135916 0.0 # C
59 1 33.32871332799176 2.8224935378633904 0.0 # C
60 1 34.54308939383843 3.517498854800613 0.0 # C
61 1 36.97307206010608 0.7710723609150353 0.0 # C
62 1 35.7582485681029 1.4222328953017718 0.0 # C
63 1 35.75802761821928 2.8240537108539088 0.0 # C
64 1 36.97219679251137 3.519120525425356 0.0 # C
65 1 39.401770817192656 0.7722512649646462 0.0 # C
66 1 38.18714971173276 1.423622977613859 0.0 # C
67 1 38.18687907284059 2.825421442727984 0.0 # C
68 1 39.40086352581213 3.520587414593348 0.0 # C
69 1 41.83005765251921 0.7734267305468123 0.0 # C
70 1 40.61566280632402 1.4250388750947156 0.0 # C
71 1 40.61538929815091 2.8267450351889307 0.0 # C
72 1 41.829353272104534 3.521808119965645 0.0 # C
73 1 44.25812214435471 0.7740805683826594 0.0 # C
74 1 43.04393280463544 1.4260739729543268 0.0 # C
75 1 43.04372445519254 2.8277638622686436 0.0 # C
76 1 44.25765213033779 3.522692346575206 0.0 # C
77 1 46.68611220137061 0.7746157042953715 0.0 # C
78 1 45.471993107947476 1.4267081960244 0.0 # C
79 1 45.47184870148637 2.8283890214971956 0.0 # C
80 1 46.685799536057765 3.5232514567914044 0.0 # C
81 1 49.11388034875208 0.7747220801665431 0.0 # C
82 1 47.89997416121442 1.4271565135245314 0.0 # C
83 1 47.899929511875015 2.82880602894501 0.0 # C
84 1 49.114036844524044 3.523321254347706 0.0 # C
85 1 51.54179974731677 0.7742371546380119 0.0 # C
86 1 50.32796035737348 1.4268794471247843 0.0 # C
87 1 50.32804882766 2.8285637755030755 0.0 # C
88 1 51.54221236138385 3.522978785679263 0.0 # C
89 1 53.96986123336361 0.7738625881011045 0.0 # C
90 1 52.75592642048812 1.4263866391863547 0.0 # C
91 1 52.756141854631196 2.828067634815045 0.0 # C
92 1 53.970400202498105 3.5223022100175134 0.0 # C
93 1 56.397965216097965 0.7728849863918947 0.0 # C
94 1 55.18411938045151 1.4256985043495658 0.0 # C
95 1 55.18438137942306 2.827401709820965 0.0 # C
96 1 56.398869403914205 3.5212817829234253 0.0 # C
97 1 58.82648773840799 0.7715757525908736 0.0 # C
98 1 57.612490820900895 1.4242961621268808 0.0 # C
99 1 57.61278860379781 2.826029188751556 0.0 # C
100 1 58.82732576111584 3.519842183617618 0.0 # C
101 1 61.25541229320485 0.7705306063107707 0.0 # C
102 1 60.04115016842051 1.4228997467769993 0.0 # C
103 1 60.04138738075156 2.8247397715055884 0.0 # C
104 1 61.25619597381825 3.5183353754909144 0.0 # C
105 1 63.68462297930382 0.7691388956166348 0.0 # C
106 1 62.47027312116558 1.421546198517525 0.0 # C
107 1 62.470517889146905 2.823371493394518 0.0 # C
108 1 63.685604541864954 3.5166482327784294 0.0 # C
109 1 66.11451683831088 0.7674514366794607 0.0 # C
110 1 64.89990079287819 1.4195994238414762 0.0 # C
111 1 64.90007419424228 2.8215653595386745 0.0 # C
112 1 66.11545202577828 3.5145299591765076 0.0 # C
113 1 68.545178630409 0.7659207167593377 0.0 # C
114 1 67.33011281820416 1.4175670617794418 0.0 # C
115 1 67.3302168562233 2.8196092891165927 0.0 # C
116 1 68.54577522157177 3.5125665640681234 0.0 # C
117 1 70.97636891780168 0.7647870743548525 0.0 # C
118 1 69.76095458514318 1.415944131103682 0.0 # C
119 1 69.76095536666703 2.818076001063362 0.0 # C
120 1 70.97690908793149 3.5106129563327957 0.0 # C
121 1 73.40833092367191 0.7632211042417981 0.0 # C
122 1 72.19257002252655 1.4141321508835847 0.0 # C
123 1 72.19248863663347 2.816306695564409 0.0 # C
124 1 73.40893875301241 3.5082940242508616 0.0 # C
125 1 75.84142388232951 0.7613661740533125 0.0 # C
126 1 74.62518864777171 1.411800757055575 0.0 # C
127 1 74.62495238067424 2.8141411293739185 0.0 # C
128 1 75.84206781196725 3.5053315868145707 0.0 # C
129 1 78.27605266032988 0.7589229842726598 0.0 # C
130 1 77.05910425685857 1.4088564497197507 0.0 # C
131 1 77.05868206282658 2.8113217757450264 0.0 # C
132 1 78.2765628525485 3.5017251317750158 0.0 # C
133 1 80.71284486908479 0.7560765839137651 0.0 # C
134 1 79.4947741661618 1.4050862413124 0.0 # C
135 1 79.49394412101178 2.8078864903307346 0.0 # C
136 1 80.7125726257986 3.49762824887657 0.0 # C
137 1 83.1524655813679 0.7537128659413875 0.0 # C
138 1 81.93271310093326 1.4010032531145074 0.0 # C
139 1 81.93105571650062 2.8041954526112134 0.0 # C
140 1 83.1504510399262 3.493594715433005 0.0 # C
141 1 85.59532576529752 0.7525394380844947 0.0 # C
142 1 84.37353048181077 1.397612917273592 0.0 # C
143 1 84.37050714392419 2.801201870224478 0.0 # C
144 1 85.59075229784784 3.4902030975213307 0.0 # C
145 1 88.04238410062851 0.7524188543396757 0.0 # C
146 1 86.81801364747403 1.3949557911772499 0.0 # C
147 1 86.8129685574187 2.7990773268927502 0.0 # C
148 1 88.03405723583181 3.4879483635520896 0.0 # C
149 1 90.49550256410019 0.7540353300676793 0.0 # C
150 1 89.26727899000338 1.392890463382472 0.0 # C
151 1 89.25878387025898 2.797852349744621 0.0 # C
152 1 90.48046845352842 3.487171729814186 0.0 # C
153 1 92.95785055290713 0.7586185269371789 0.0 # C
154 1 91.72346485685487 1.392131458798997 0.0 # C
155 1 91.70863515499494 2.7982698003120783 0.0 # C
156 1 92.92961371689431 3.49023573822652 0.0 # C
157 1 95.43557191173521 0.7753428048942682 0.0 # C
158 1 94.18938242289241 1.3954253137098163 0.0 # C
159 1 94.1617101169745 2.8026311667670982 0.0 # C
160 1 95.38156144784305 3.4971720312326853 0.0 # C
161 1 97.84445928593006 0.7240600961507516 0.0 # C
162 1 96.68261109315829 1.4035574704863243 0.0 # C
163 1 96.62050854381948 2.7980784932300393 0.0 # C
164 1 97.78949160191335 3.574368926239657 0.0 # C
165 1 0.473538209807978 4.913775296896155 0.0 # C
166 1 -0.7056903839899806 5.672971035806272 0.0 # C
167 1 -0.6709126448796442 7.038262106464733 0.0 # C
168 1 0.5380341069507127 7.746234707665851 0.0 # C
169 1 2.901444107940047 4.897460623814432 0.0 # C
170 1 1.6964618152260227 5.610336000126823 0.0 # C
171 1 1.7333071602135355 7.014809299588753 0.0 # C
172 1 2.9538443482470313 7.703920799286951 0.0 # C
173 1 5.3369086051869195 4.889175662249341 0.0 # C
174 1 4.124748109608412 5.590912155617542 0.0 # C
175 1 4.157601940139008 6.99219590160337 0.0 # C
176 1 5.3759389807699485 7.687800552829698 0.0 # C
177 1 7.77568913778031 4.887716334714622 0.0 # C
178 1 6.559598263889823 5.583289921458219 0.0 # C
179 1 6.585378433079933 6.984075769552049 0.0 # C
180 1 7.803883145387387 7.6803898662437575 0.0 # C
181 1 10.214762249909189 4.88880397327406 0.0 # C
182 1 8.997265741298724 5.5816912729342345 0.0 # C
183 1 9.016755763757056 6.981841035051448 0.0 # C
184 1 10.23493901248926 7.67813972271451 0.0 # C
185 1 12.652771517723409 4.89124340101594 0.0 # C
186 1 11.434947916449739 5.582919992334357 0.0 # C
187 1 11.449625886355777 6.982587356710704 0.0 # C
188 1 12.667153226706374 7.67898354893381 0.0 # C
189 1 15.089288517992516 4.894674970658363 0.0 # C
190 1 13.87150724435066 5.585829364713723 0.0 # C
191 1 13.882699611139548 6.985091574599555 0.0 # C
192 1 15.099605555960398 7.681410358810146 0.0 # C
193 1 17.524501810778226 4.898567091539193 0.0 # C
194 1 16.30698829441766 5.589549039609733 0.0 # C
195 1 16.315553222449488 6.9884713288618485 0.0 # C
196 1 17.53198099080141 7.684523033722277 0.0 # C
197 1 19.958493345258006 4.902144518427154 0.0 # C
198 1 18.741422436002015 5.593413245155947 0.0 # C
199 1 18.74805727149581 6.99204823303713 0.0 # C
200 1 19.96402181500017 7.687914315776889 0.0 # C
201 1 22.39139686818104 4.905281736931671 0.0 # C
202 1 21.174801636338934 5.596989315520098 0.0 # C
203 1 21.179910722601452 6.99539521075183 0.0 # C
204 1 22.395500477710595 7.6910514887532955 0.0 # C
205 1 24.823309896210667 4.907766063376921 0.0 # C
206 1 23.607227818650685 5.600108894548647 0.0 # C
207 1 23.611231186463993 6.998401972958322 0.0 # C
208 1 24.826467111134274 7.693936212045428 0.0 # C
209 1 27.254391424029592 4.909827861513843 0.0 # C
210 1 26.038716373931884 5.602628323182944 0.0 # C
211 1 26.04181910956525 7.000825289776571 0.0 # C
212 1 27.25669011911202 7.69643194517325 0.0 # C
213 1 29.684681407527997 4.91175822887021 0.0 # C
214 1 28.469354678534657 5.6049188888001495 0.0 # C
215 1 28.471828842198274 7.003054690397408 0.0 # C
216 1 29.686387414005676 7.698778658134877 0.0 # C
217 1 32.11444960513229 4.9136993152744415 0.0 # C
218 1 30.899322751585615 5.607071663590606 0.0 # C
219 1 30.90128228014559 7.005166586973594 0.0 # C
220 1 32.11561924575041 7.700887522351393 0.0 # C
221 1 34.54375339887854 4.915520261850595 0.0 # C
222 1 33.328827385582564 5.609093804764469 0.0 # C
223 1 33.33036331961378 7.007109231102415 0.0 # C
224 1 34.54454118533569 7.702766093385405 0.0 # C
225 1 36.972641180796316 4.917046312928295 0.0 # C
226 1 35.757982800518334 5.610867858508565 0.0 # C
227 1 35.75911559073726 7.00881020122407 0.0 # C
228 1 36.97312899040979 7.704481771859029 0.0 # C
229 1 39.401237989581425 4.9184803305917315 0.0 # C
230 1 38.18668141627059 5.612442590400559 0.0 # C
231 1 38.18757869781678 7.010357387302104 0.0 # C
232 1 39.401517471912804 7.705936941024443 0.0 # C
233 1 41.82958207881912 4.91963891039226 0.0 # C
234 1 40.615223305653416 5.613792251663317 0.0 # C
235 1 40.61584312957684 7.011648137184055 0.0 # C
236 1 41.82975553897246 7.707101318711199 0.0 # C
237 1 44.25780384391033 4.920508022585368 0.0 # C
238 1 43.04352541867602 5.614843030445553 0.0 # C
239 1 43.04400627011755 7.012689189563875 0.0 # C
240 1 44.257922032765215 7.7079963813509815 0.0 # C
241 1 46.68589546638223 4.92104088935969 0.0 # C
242 1 45.471763541886645 5.615596241262386 0.0 # C
243 1 45.47204069948603 7.013396957327275 0.0 # C
244 1 46.68596804776357 7.708500183514042 0.0 # C
245 1 49.114005890417175 4.92112115535662 0.0 # C
246 1 47.89993078867542 5.6158526018532635 0.0 # C
247 1 47.89997972293794 7.013653263945879 0.0 # C
248 1 49.113974510632154 7.7085904766378714 0.0 # C
249 1 51.542080917785405 4.9207905285950355 0.0 # C
250 1 50.32811187201897 5.615772139354968 0.0 # C
251 1 50.32794152286468 7.013574844199678 0.0 # C
252 1 51.54198569553443 7.708305398469792 0.0 # C
253 1 53.97020257341006 4.920127379981619 0.0 # C
254 1 52.756249215584276 5.615265535762618 0.0 # C
255 1 52.755896662591624 7.013086190985846 0.0 # C
256 1 53.970078805237144 7.707597677086429 0.0 # C
257 1 56.39852783896217 4.919150687269609 0.0 # C
258 1 55.184543752389345 5.614370398662945 0.0 # C
259 1 55.18395810077731 7.012205917878755 0.0 # C
260 1 56.39824940140399 7.706548781983708 0.0 # C
261 1 58.826941258394456 4.917746322337384 0.0 # C
262 1 57.61297025539533 5.613190274745295 0.0 # C
263 1 57.612199495115185 7.011057442780087 0.0 # C
264 1 58.826559619409856 7.705261433883934 0.0 # C
265 1 61.255685991945356 4.91630266406616 0.0 # C
266 1 60.04155404967728 5.61166833977952 0.0 # C
267 1 60.040545418574496 7.009626823403286 0.0 # C
268 1 61.255067078242156 7.703688086186442 0.0 # C
269 1 63.684802692135555 4.91469691424056 0.0 # C
270 1 62.470467768324816 5.610034559080582 0.0 # C
271 1 62.46914993172464 7.008016057441188 0.0 # C
272 1 63.683834379257355 7.701854434535403 0.0 # C
273 1 66.11432103818301 4.912650694490684 0.0 # C
274 1 64.89986635558924 5.608086523031119 0.0 # C
275 1 64.89811865895022 7.006154783917476 0.0 # C
276 1 66.11293987108687 7.699863988887234 0.0 # C
277 1 68.54430528964984 4.91075038864433 0.0 # C
278 1 67.32951921817182 5.605948670757848 0.0 # C
279 1 67.32731816851708 7.004056397214188 0.0 # C
280 1 68.5423198609823 7.697551493920339 0.0 # C
281 1 70.9749926696016 4.908854753870435 0.0 # C
282 1 69.75979266680879 5.603763535696309 0.0 # C
283 1 69.75704483757319 7.00193070022418 0.0 # C
284 1 70.97225667546884 7.695218418494257 0.0 # C
285 1 73.4064362375208 4.906620590371144 0.0 # C
286 1 72.19084321931442 5.60146870214876 0.0 # C
287 1 72.1873191439038 6.99970488599111 0.0 # C
288 1 73.402865288791 7.692571103220793 0.0 # C
289 1 75.83886050753068 4.903804478814102 0.0 # C
290 1 74.62278278270816 5.598626800592696 0.0 # C
291 1 74.61827008850466 6.996983886752393 0.0 # C
292 1 75.83409480318846 7.689539913537556 0.0 # C
293 1 78.2723108136434 4.900400099023797 0.0 # C
294 1 77.0557226434216 5.595273314705078 0.0 # C
295 1 77.0498625485733 6.993786496205723 0.0 # C
296 1 78.26584971428129 7.6862563331908 0.0 # C
297 1 80.70687446927634 4.896610239757761 0.0 # C
298 1 79.48957290989841 5.5915041911777426 0.0 # C
299 1 79.48203390034388 6.990261772450265 0.0 # C
300 1 80.69807378804713 7.682926079770001 0.0 # C
301 1 83.1426863654211 4.892909682978486 0.0 # C
302 1 81.92450951522301 5.5876777296599425 0.0 # C
303 1 81.91473266555987 6.986741477008035 0.0 # C
304 1 83.13056362876392 7.6800344510315615 0.0 # C
305 1 85.57992998566432 4.889920125204302 0.0 # C
306 1 84.3605103073133 5.584248758102593 0.0 # C
307 1 84.34776259656526 6.983685864289907 0.0 # C
308 1 85.56291420127572 7.678313731602472 0.0 # C
309 1 88.01853408934936 4.888207364844651 0.0 # C
310 1 86.79762626303885 5.582119064682229 0.0 # C
311 1 86.78076465975163 6.982005487031533 0.0 # C
312 1 87.99469768567353 7.678875295791104 0.0 # C
313 1 90.45765579282372 4.888255855793164 0.0 # C
314 1 89.23547695390121 5.582180087383026 0.0 # C
315 1 89.21314248284065 6.982626766794079 0.0 # C
316 1 90.42459567538135 7.6833699198001915 0.0 # C
317 1 92.89524362920167 4.892150517770944 0.0 # C
318 1 91.67224716872579 5.586124285446588 0.0 # C
319 1 91.64302830013243 6.987175007894457 0.0 # C
320 1 92.85026010949598 7.694209149793565 0.0 # C
321 1 95.3299638171548 4.907062828546787 0.0 # C
322 1 94.10425111049298 5.597571867482517 0.0 # C
323 1 94.06863777327082 6.999868807149644 0.0 # C
324 1 95.27025968555814 7.716141721216858 0.0 # C
325 1 97.73301334853528 4.93967336278295 0.0 # C
326 1 96.52210901215305 5.6449257396834005 0.0 # C
327 1 96.48792220585834 7.020176208450808 0.0 # C
328 1 97.67292944332685 7.768652498839578 0.0 # C
329 1 0.5624417538936447 9.12033879618007 0.0 # C
330 1 -0.6256972039170628 9.863020700164684 0.0 # C
331 1 -0.6073686841212284 11.228242835886084 0.0 # C
332 1 0.5981775210607175 11.941565963105989 0.0 # C
333 1 2.9807495261881742 9.104152929342883 0.0 # C
334 1 1.77795823267092 9.81758923865292 0.0 # C
335 1 1.7977327587030456 11.218692756161007 0.0 # C
336 1 3.0150192397830127 11.907601779420652 0.0 # C
337 1 5.401707401612464 9.08809311644081 0.0 # C
338 1 4.196797640858216 9.797550453490096 0.0 # C
339 1 4.218153469312364 11.196705454688674 0.0 # C
340 1 5.432729668043017 11.89158789922798 0.0 # C
341 1 7.826169886304263 9.080467644653998 0.0 # C
342 1 6.617617382895668 9.784528733781073 0.0 # C
343 1 6.638537606012268 11.184159982329284 0.0 # C
344 1 7.852898561047469 11.881246364212593 0.0 # C
345 1 10.253257050266646 9.077841304639643 0.0 # C
346 1 9.042124355523594 9.77792368354261 0.0 # C
347 1 9.06112802837019 11.17748681889273 0.0 # C
348 1 10.27535829095078 11.875710319825973 0.0 # C
349 1 12.68196053545926 9.078333314211232 0.0 # C
350 1 11.469093161876039 9.775618563400952 0.0 # C
351 1 11.485570566239193 11.17499125851639 0.0 # C
352 1 12.69981818210414 11.87352617095099 0.0 # C
353 1 15.111457674330063 9.080459558320673 0.0 # C
354 1 13.897565308128335 9.776007284617162 0.0 # C
355 1 13.911510779264434 11.175124740865314 0.0 # C
356 1 15.125893847584083 11.873420341534006 0.0 # C
357 1 17.54152692847746 9.083314815908393 0.0 # C
358 1 16.326953066761174 9.7777832390609 0.0 # C
359 1 16.338661999864357 11.176687943409247 0.0 # C
360 1 17.553069738770326 11.874617077426793 0.0 # C
361 1 19.971639335641 9.086483631253373 0.0 # C
362 1 18.756802235739794 9.780326411997091 0.0 # C
363 1 18.76649545357541 11.178994971455003 0.0 # C
364 1 19.980832867710898 11.876586194994484 0.0 # C
365 1 22.40169450166333 9.089516392306548 0.0 # C
366 1 21.186727694277756 9.783099324207852 0.0 # C
367 1 21.194688069335157 11.181612749452402 0.0 # C
368 1 22.408959871008697 11.878912977891012 0.0 # C
369 1 24.831417489498783 9.092248802546125 0.0 # C
370 1 23.616580068991322 9.785932098441378 0.0 # C
371 1 23.62302672479601 11.184304053220206 0.0 # C
372 1 24.83716237993329 11.881329696156463 0.0 # C
373 1 27.260742465347985 9.094692655040562 0.0 # C
374 1 26.04601781708946 9.788558330017272 0.0 # C
375 1 26.051275766050427 11.186843152000636 0.0 # C
376 1 27.265291188421244 11.883679848258524 0.0 # C
377 1 29.689654424468195 9.096949507032217 0.0 # C
378 1 28.475098856101013 9.790951381915214 0.0 # C
379 1 28.479397630449544 11.189162308863654 0.0 # C
380 1 29.693269211763198 11.885829668641827 0.0 # C
381 1 32.11826281051139 9.098996738796323 0.0 # C
382 1 30.90382628768673 9.793130069786805 0.0 # C
383 1 30.907332142765487 11.191302135803134 0.0 # C
384 1 32.12114354465121 11.887805154883136 0.0 # C
385 1 34.546563527641446 9.100797626244434 0.0 # C
386 1 33.33227176330517 9.795069093820288 0.0 # C
387 1 33.33510750423192 11.193142267018283 0.0 # C
388 1 34.54880301562146 11.889545019639463 0.0 # C
389 1 36.97470398292406 9.102460705233238 0.0 # C
390 1 35.760463693787244 9.796776619496283 0.0 # C
391 1 35.76272176211214 11.19479976525909 0.0 # C
392 1 36.97637693554989 11.891023663600702 0.0 # C
393 1 39.402663034574466 9.10386419946106 0.0 # C
394 1 38.18852774915709 9.798310951450947 0.0 # C
395 1 38.19029678739938 11.196289267819479 0.0 # C
396 1 39.40393240018057 11.892362953667755 0.0 # C
397 1 41.830547432494484 9.104993353989254 0.0 # C
398 1 40.61646115044694 9.799574399254045 0.0 # C
399 1 40.617778308620636 11.197521874129636 0.0 # C
400 1 41.831421612205446 11.893415708416155 0.0 # C
401 1 44.25837048268848 9.105870123180368 0.0 # C
402 1 43.04432371957205 9.800547727988144 0.0 # C
403 1 43.04522279426728 11.198444557294504 0.0 # C
404 1 44.25886379974103 11.894180581284425 0.0 # C
405 1 46.6861752776196 9.106349736903335 0.0 # C
406 1 45.47220360627878 9.801238159247895 0.0 # C
407 1 45.47266099433482 11.19913307870984 0.0 # C
408 1 46.686342819687 11.89465732057224 0.0 # C
409 1 49.11389279461328 9.106437491791315 0.0 # C
410 1 47.900030001335374 9.801520398194661 0.0 # C
411 1 47.90007703881878 11.199393865495406 0.0 # C
412 1 49.113824524804265 11.894713471560618 0.0 # C
413 1 51.54165700466657 9.106146247156483 0.0 # C
414 1 50.32781361816157 9.801389145858254 0.0 # C
415 1 50.327559366995956 11.199281136628016 0.0 # C
416 1 51.541321260407784 11.894441237972874 0.0 # C
417 1 53.96946547686339 9.105477374385298 0.0 # C
418 1 52.75565424587995 9.800919950374851 0.0 # C
419 1 52.754992482042006 11.198829687255541 0.0 # C
420 1 53.96881559411187 11.893853288440743 0.0 # C
421 1 56.39729383487882 9.1044770570919 0.0 # C
422 1 55.183516411222456 9.800116628048954 0.0 # C
423 1 55.18243841100427 11.198017159407534 0.0 # C
424 1 56.3962605023274 11.892913770518307 0.0 # C
425 1 58.825225694711655 9.103223975815052 0.0 # C
426 1 57.611401274048404 9.798996453033444 0.0 # C
427 1 57.60989196210812 11.19693732886359 0.0 # C
428 1 58.823763166372956 11.891731071349684 0.0 # C
429 1 61.253255011483766 9.101675794666063 0.0 # C
430 1 60.03942984037737 9.797629927551329 0.0 # C
431 1 60.03740516796928 11.195615473306356 0.0 # C
432 1 61.251296148334625 11.89031936377602 0.0 # C
433 1 63.68148413234632 9.099935903841244 0.0 # C
434 1 62.46752342679761 9.795944688184521 0.0 # C
435 1 62.46496037683479 11.194001681623725 0.0 # C
436 1 63.67890228808184 11.888714276515088 0.0 # C
437 1 66.10994829040736 9.097991859014945 0.0 # C
438 1 64.89586622568525 9.7941247714831 0.0 # C
439 1 64.89267690283641 11.192265352220739 0.0 # C
440 1 66.10671507527601 11.886830821967418 0.0 # C
441 1 68.53868126366112 9.09576179153412 0.0 # C
442 1 67.32445488201013 9.79204272729287 0.0 # C
443 1 67.3205628464799 11.190244416830927 0.0 # C
444 1 68.53464262148448 11.884765813412073 0.0 # C
445 1 70.96779378609945 9.093487931400135 0.0 # C
446 1 69.75331148748937 9.789711028686408 0.0 # C
447 1 69.74858126287457 11.187977327343033 0.0 # C
448 1 70.96267801164281 11.882519056168672 0.0 # C
449 1 73.39733875332185 9.090951303551696 0.0 # C
450 1 72.18257481379646 9.787269205102104 0.0 # C
451 1 72.17674665399993 11.185602323615315 0.0 # C
452 1 73.39083774746601 11.880143746437437 0.0 # C
453 1 75.82723051416755 9.088025730050715 0.0 # C
454 1 74.61225580173172 9.784551760765094 0.0 # C
455 1 74.60507668487939 11.183016117142929 0.0 # C
456 1 75.8190522408186 11.877797791649988 0.0 # C
457 1 78.25733936053453 9.084929720983723 0.0 # C
458 1 77.04213644780097 9.781718402430583 0.0 # C
459 1 77.03333658767401 11.18030088479719 0.0 # C
460 1 78.2469879938968 11.87558848193667 0.0 # C
461 1 80.68746080725137 9.081871906769878 0.0 # C
462 1 79.47205397102445 9.77903840428752 0.0 # C
463 1 79.46137239094283 11.177808828738362 0.0 # C
464 1 80.67453877927622 11.873938985171572 0.0 # C
465 1 83.11733058253523 9.07924225031564 0.0 # C
466 1 81.90175588926272 9.776780489807102 0.0 # C
467 1 81.88894958319285 11.175773659493757 0.0 # C
468 1 83.10122747371359 11.873250927162838 0.0 # C
469 1 85.54650434234027 9.077831756613469 0.0 # C
470 1 84.33077731434065 9.775560085348173 0.0 # C
471 1 84.3155338873465 11.17478631552968 0.0 # C
472 1 85.52653924078882 11.874262489083165 0.0 # C
473 1 87.97450811011237 9.07875821985578 0.0 # C
474 1 86.75860778665258 9.776383339893206 0.0 # C
475 1 86.7408119497214 11.175855134655446 0.0 # C
476 1 87.9500998835016 11.878006280110224 0.0 # C
477 1 90.40043831230356 9.08356116252135 0.0 # C
478 1 89.18446888750765 9.7805994555932 0.0 # C
479 1 89.16437264909088 11.180208023586044 0.0 # C
480 1 90.3715171086905 11.885697109683237 0.0 # C
481 1 92.82320729290079 9.094405300633403 0.0 # C
482 1 91.60737937321926 9.789957169374835 0.0 # C
483 1 91.58596528084732 11.189527791961803 0.0 # C
484 1 92.79032049144215 11.899003683528203 0.0 # C
485 1 95.24416333220758 9.118225873653659 0.0 # C
486 1 94.02579896561502 9.806935259485906 0.0 # C
487 1 94.00515706026945 11.206046212774032 0.0 # C
488 1 95.20913004668168 11.91677031180418 0.0 # C
489 1 97.64901808566692 9.133921022589057 0.0 # C
490 1 96.44193093825784 9.84480704951826 0.0 # C
491 1 96.42329812531123 11.218283704659893 0.0 # C
492 1 97.61354605102697 11.95726773965519 0.0 # C
493 1 0.6129850431199865 13.314772394492998 0.0 # C
494 1 -0.5785299028700795 14.051477360355728 0.0 # C
495 1 -0.5659197895294785 15.41665134718378 0.0 # C
496 1 0.6377668729905648 16.132914181763987 0.0 # C
497 1 3.0313641544682035 13.305987384633761 0.0 # C
498 1 1.8262216103702817 14.014352371018946 0.0 # C
499 1 1.8394376051316679 15.414430038663257 0.0 # C
500 1 3.055124547884068 16.104675148973364 0.0 # C
501 1 5.450105252688479 13.29046358175298 0.0 # C
502 1 4.2454678573468385 13.998880085039108 0.0 # C
503 1 4.259547601815867 15.396820973497798 0.0 # C
504 1 5.472741886448791 16.09143639018811 0.0 # C
505 1 7.870148356255015 13.280343394118988 0.0 # C
506 1 6.663715815299537 13.986215365127089 0.0 # C
507 1 6.678365280635072 15.384818056404484 0.0 # C
508 1 7.89104915141051 16.08163258029307 0.0 # C
509 1 10.291544205399344 13.274799583337758 0.0 # C
510 1 9.083359761414593 13.978016896774786 0.0 # C
511 1 9.097980711868075 15.376829893246533 0.0 # C
512 1 10.310409803093696 16.075073681662637 0.0 # C
513 1 12.714441246863302 13.272477888681228 0.0 # C
514 1 11.504711982226825 13.973352155135592 0.0 # C
515 1 11.518662365499752 15.372187985882807 0.0 # C
516 1 12.731081504750419 16.07117639106851 0.0 # C
517 1 15.138672950640954 13.272261815798432 0.0 # C
518 1 13.92770662296625 13.97127816662397 0.0 # C
519 1 13.9405792088672 15.370093995060122 0.0 # C
520 1 15.153087511973311 16.069349786050527 0.0 # C
521 1 17.564064103948937 13.273353165729247 0.0 # C
522 1 16.35208526915694 13.97099844532292 0.0 # C
523 1 16.36365344522471 15.369810673699506 0.0 # C
524 1 17.576373133429925 16.068910418353965 0.0 # C
525 1 19.99016451345394 13.275189762645912 0.0 # C
526 1 18.777565627537914 13.971897112026344 0.0 # C
527 1 18.78770723297868 15.370569264684873 0.0 # C
528 1 20.000519443441817 16.069472287688317 0.0 # C
529 1 22.41673419698801 13.277412413588744 0.0 # C
530 1 21.203681432454637 13.97344420260163 0.0 # C
531 1 21.212481945673986 15.372008387202198 0.0 # C
532 1 22.425477810451383 16.07051555841427 0.0 # C
533 1 24.843682653864327 13.279719597478529 0.0 # C
534 1 23.630326163534583 13.975343864065703 0.0 # C
535 1 23.63791191128705 15.37379364843027 0.0 # C
536 1 24.850920715569636 16.072018596051887 0.0 # C
537 1 27.270734862224618 13.281990881245639 0.0 # C
538 1 26.057246964755905 13.977340173725988 0.0 # C
539 1 26.06365446053806 15.375706596097457 0.0 # C
540 1 27.276771393818127 16.073614672032928 0.0 # C
541 1 29.6978629385209 13.284057186009283 0.0 # C
542 1 28.484289234055346 13.97933818823542 0.0 # C
543 1 28.489782817489388 15.377660463792186 0.0 # C
544 1 29.702925837819564 16.07534042000205 0.0 # C
545 1 32.12496708027625 13.285990444760497 0.0 # C
546 1 30.91136863315653 13.981244006721795 0.0 # C
547 1 30.916085052535543 15.379524032150819 0.0 # C
548 1 32.129231590092154 16.076943507231324 0.0 # C
549 1 34.552035016089846 13.287657017406298 0.0 # C
550 1 33.33847842286633 13.98293046585069 0.0 # C
551 1 33.34240326548812 15.381163600591652 0.0 # C
552 1 34.55553677737991 16.07837947977831 0.0 # C
553 1 36.979019987291686 13.289094321634177 0.0 # C
554 1 35.76546866442142 13.98441959732 0.0 # C
555 1 35.76870141706122 15.382580381738311 0.0 # C
556 1 36.98178401834762 16.079603258125744 0.0 # C
557 1 39.40601608753927 13.290358873091398 0.0 # C
558 1 38.19246832548672 13.985665549123032 0.0 # C
559 1 38.19498736125965 15.383817775283537 0.0 # C
560 1 39.40810009039107 16.080676423941217 0.0 # C
561 1 41.83293681731106 13.291410794797295 0.0 # C
562 1 40.619392055629646 13.98679649611147 0.0 # C
563 1 40.621315800302185 15.384898994208566 0.0 # C
564 1 41.83443355042017 16.081541606098565 0.0 # C
565 1 44.25981221180679 13.292171452693864 0.0 # C
566 1 43.04630075285519 13.98767498464409 0.0 # C
567 1 43.04764329882544 15.385723485057554 0.0 # C
568 1 44.26078990576502 16.08218162372336 0.0 # C
569 1 46.686738716165685 13.29262626339448 0.0 # C
570 1 45.473233929053706 13.98825955306966 0.0 # C
571 1 45.474000615101886 15.386292808081105 0.0 # C
572 1 46.68717755916591 16.082544581822223 0.0 # C
573 1 49.11370698772189 13.292691693715753 0.0 # C
574 1 47.90022294663445 13.988460163018724 0.0 # C
575 1 47.90037103989451 15.386489792336377 0.0 # C
576 1 49.11354896525199 16.082583412364052 0.0 # C
577 1 51.5406394189341 13.29239364265699 0.0 # C
578 1 50.327211528570515 13.988369432112579 0.0 # C
579 1 50.326741558479505 15.386415661177704 0.0 # C
580 1 51.53992640890185 16.082409709787356 0.0 # C
581 1 53.96758660721337 13.291843034463339 0.0 # C
582 1 52.75415298909668 13.987979674704448 0.0 # C
583 1 52.7531040992558 15.386073106010215 0.0 # C
584 1 53.96635665865294 16.081895865664844 0.0 # C
585 1 56.39445684973351 13.290927457477403 0.0 # C
586 1 55.18108368983186 13.987265871923924 0.0 # C
587 1 55.179444587454384 15.385305933222208 0.0 # C
588 1 56.39267398398279 16.08110273738281 0.0 # C
589 1 58.821393449336206 13.289780851556454 0.0 # C
590 1 57.60799029636966 13.986275271294312 0.0 # C