# This is log file written by graphene.airebo.lmp file
# equilibration -- 250 ps of nvt, 250 ps of npt run

variable        temp_i equal 77.0
variable        temp_f equal 77.0
variable        press_i equal 10
variable        press_f equal 10

units               metal
atom_style          atomic

read_data           min_${file}_462.lmpdat
read_data           min_graphene_462.lmpdat
Reading data file ...
  orthogonal box = (-26.493052 -24.660999 -50) to (123.50695 125.339 50)
  2 by 2 by 1 MPI processor grid
  reading atoms ...
  3936 atoms
  reading velocities ...
  3936 velocities
  read_data CPU = 0.008 seconds

neighbor            0.5 bin
neigh_modify        delay 5 every 1

pair_style          airebo 3.0 1 1
pair_coeff          * * CH.airebo C
Reading airebo potential file CH.airebo with DATE: 2011-10-25

variable           my_timestep equal 0.001
timestep           ${my_timestep}
timestep           0.001

# Output frequancy
thermo             1000 #000
variable           data_write_frq equal 1000

compute 0 all pair airebo
variable           REBO equal c_0[1]
variable           LJ   equal c_0[2]
variable           TORSION equal c_0[3]

thermo_style       custom step time temp press density ndanger pe ke etotal evdwl ecoul epair v_REBO v_LJ v_TORSION enthalpy ecouple econserve

velocity           all create ${temp_i} 4928459 rot yes mom yes dist gaussian
velocity           all create 77 4928459 rot yes mom yes dist gaussian

# NVT
fix                 my_nvt all nvt temp ${temp_i} ${temp_f} $(100*dt)
fix                 my_nvt all nvt temp 77 ${temp_f} $(100*dt)
fix                 my_nvt all nvt temp 77 77 $(100*dt)
fix                 my_nvt all nvt temp 77 77 0.10000000000000000555
compute             1 all pe/atom
restart        	    ${data_write_frq}  ${file}_${purpose}_${run}_a.rst ${file}_${purpose}_${run}_b.rst
restart        	    1000  ${file}_${purpose}_${run}_a.rst ${file}_${purpose}_${run}_b.rst
restart        	    1000  graphene_${purpose}_${run}_a.rst ${file}_${purpose}_${run}_b.rst
restart        	    1000  graphene_nvt_eql_${run}_a.rst ${file}_${purpose}_${run}_b.rst
restart        	    1000  graphene_nvt_eql_1_a.rst ${file}_${purpose}_${run}_b.rst
restart        	    1000  graphene_nvt_eql_1_a.rst graphene_${purpose}_${run}_b.rst
restart        	    1000  graphene_nvt_eql_1_a.rst graphene_nvt_eql_${run}_b.rst
restart        	    1000  graphene_nvt_eql_1_a.rst graphene_nvt_eql_1_b.rst
dump                nvt_eq_dump all custom ${data_write_frq} ${file}_${purpose}_${run}.lammpstrj id type x y z xu yu zu vx vy vz fx fy fz c_1 ix iy iz
dump                nvt_eq_dump all custom 1000 ${file}_${purpose}_${run}.lammpstrj id type x y z xu yu zu vx vy vz fx fy fz c_1 ix iy iz
dump                nvt_eq_dump all custom 1000 graphene_${purpose}_${run}.lammpstrj id type x y z xu yu zu vx vy vz fx fy fz c_1 ix iy iz
dump                nvt_eq_dump all custom 1000 graphene_nvt_eql_${run}.lammpstrj id type x y z xu yu zu vx vy vz fx fy fz c_1 ix iy iz
dump                nvt_eq_dump all custom 1000 graphene_nvt_eql_1.lammpstrj id type x y z xu yu zu vx vy vz fx fy fz c_1 ix iy iz
dump_modify	        nvt_eq_dump sort id

run                 250000 # 250 ps

CITE-CITE-CITE-CITE-CITE-CITE-CITE-CITE-CITE-CITE-CITE-CITE-CITE

Your simulation uses code contributions which should be cited:

- Type Label Framework: https://doi.org/10.1021/acs.jpcb.3c08419

@Article{Gissinger24,
 author = {Jacob R. Gissinger, Ilia Nikiforov, Yaser Afshar, Brendon Waters, Moon-ki Choi, Daniel S. Karls, Alexander Stukowski, Wonpil Im, Hendrik Heinz, Axel Kohlmeyer, and Ellad B. Tadmor},
 title = {Type Label Framework for Bonded Force Fields in LAMMPS},
 journal = {J. Phys. Chem. B},
 year =    2024,
 volume =  128,
 number =  13,
 pages =   {3282–-3297}
}

CITE-CITE-CITE-CITE-CITE-CITE-CITE-CITE-CITE-CITE-CITE-CITE-CITE

Last active /omp style is pair_style airebo/omp
Neighbor list info ...
  update: every = 1 steps, delay = 5 steps, check = yes
  max neighbors/atom: 2000, page size: 100000
  master list distance cutoff = 10.7
  ghost atom cutoff = 10.7
  binsize = 5.35, bins = 29 29 19
  1 neighbor lists, perpetual/occasional/extra = 1 0 0
  (1) pair airebo/omp, perpetual
      attributes: full, newton on, ghost, omp
      pair build: full/bin/ghost/omp
      stencil: full/ghost/bin/3d
      bin: standard
Per MPI rank memory allocation (min/avg/max) = 4.335 | 4.335 | 4.335 Mbytes
   Step          Time           Temp          Press         Density       Ndanger       PotEng         KinEng         TotEng         E_vdwl         E_coul         E_pair         v_REBO          v_LJ        v_TORSION       Enthalpy       Ecouple       Econserve   
         0   0              77             18.592452      0.034889986            0  -28780.9        39.165178     -28741.735     -28780.9        0             -28780.9       -30222.153     -67.1628        1508.4162     -28715.624      0             -28741.735    
      1000   1              75.596667     -104.19547      0.034889986            0  -28750.367      38.451388     -28711.915     -28750.367      0             -28750.367     -30166.009     -67.039473      1482.6822     -28858.241     -29.470117     -28741.386    
      2000   2              77.647752     -97.563557      0.034889986            0  -28749.185      39.494649     -28709.691     -28749.185      0             -28749.185     -30165.075     -67.044088      1482.9336     -28846.703     -31.693357     -28741.384    
      3000   3              74.680058     -3.2385604      0.034889986            0  -28749.734      37.985166     -28711.748     -28749.734      0             -28749.734     -30164.111     -67.315755      1481.6934     -28716.296     -29.640629     -28741.389    
      4000   4              77.714199      36.538238      0.034889986            0  -28748.832      39.528447     -28709.303     -28748.832      0             -28748.832     -30163.316     -67.432018      1481.9159     -28657.991     -32.077303     -28741.381    
      5000   5              76.010345      3.0977357      0.034889986            0  -28749.749      38.661801     -28711.087     -28749.749      0             -28749.749     -30164.555     -67.327892      1482.1334     -28706.737     -30.306769     -28741.394    
      6000   6              78.276604     -17.020447      0.034889986            0  -28749.898      39.814508     -28710.083     -28749.898      0             -28749.898     -30164.968     -67.270373      1482.341      -28733.986     -31.31408      -28741.397    
      7000   7              77.236585     -11.412583      0.034889986            0  -28749.81       39.285514     -28710.525     -28749.81       0             -28749.81      -30164.169     -67.292064      1481.6504     -28726.552     -30.870572     -28741.395    
      8000   8              75.661151      10.006088      0.034889986            0  -28749.219      38.484187     -28710.734     -28749.219      0             -28749.219     -30164.173     -67.342961      1482.2976     -28696.682     -30.658222     -28741.393    
      9000   9              77.581577      36.559205      0.034889986            0  -28749.443      39.46099      -28709.982     -28749.443      0             -28749.443     -30164.153     -67.405362      1482.1159     -28658.64      -31.42137      -28741.403    
     10000   10             76.265819      37.468465      0.034889986            0  -28749.298      38.791745     -28710.506     -28749.298      0             -28749.298     -30163.31      -67.440318      1481.4523     -28657.888     -30.888979     -28741.395    
     11000   11             77.528734      28.497785      0.034889986            0  -28748.739      39.434112     -28709.305     -28748.739      0             -28748.739     -30163.303     -67.392248      1481.9559     -28669.284     -32.086604     -28741.391    
     12000   12             77.796654      15.044317      0.034889986            0  -28748.618      39.570386     -28709.047     -28748.618      0             -28748.618     -30163.787     -67.347545      1482.5171     -28687.92      -32.332683     -28741.38     
     13000   13             75.814778     -20.087312      0.034889986            0  -28749.614      38.562328     -28711.051     -28749.614      0             -28749.614     -30165.332     -67.250434      1482.9686     -28739.261     -30.34089      -28741.392    
     14000   14             75.998317      9.9442494      0.034889986            0  -28749.388      38.655683     -28710.732     -28749.388      0             -28749.388     -30163.838     -67.349077      1481.8        -28696.767     -30.667949     -28741.4      
     15000   15             77.052515      2.9429943      0.034889986            0  -28748.924      39.191889     -28709.732     -28748.924      0             -28748.924     -30163.655     -67.316427      1482.0482     -28705.599     -31.659577     -28741.391    
     16000   16             76.834173      11.999791      0.034889986            0  -28750.513      39.080831     -28711.432     -28750.513      0             -28750.513     -30164.568     -67.334626      1481.3897     -28694.58      -29.97067      -28741.403    
     17000   17             78.01872       19.240102      0.034889986            0  -28749.224      39.683338     -28709.541     -28749.224      0             -28749.224     -30165.099     -67.349449      1483.2245     -28682.521     -31.850246     -28741.391    
     18000   18             77.07374      -6.8748105      0.034889986            0  -28749.395      39.202685     -28710.193     -28749.395      0             -28749.395     -30164.177     -67.289765      1482.0718     -28719.847     -31.203856     -28741.396    
     19000   19             77.297611     -2.731538       0.034889986            0  -28749.63       39.316554     -28710.314     -28749.63       0             -28749.63      -30164.785     -67.299302      1482.4538     -28714.15      -31.080256     -28741.394    
     20000   20             77.363423     -11.095924      0.034889986            0  -28749.085      39.350029     -28709.735     -28749.085      0             -28749.085     -30164.944     -67.267717      1483.1265     -28725.318     -31.66126      -28741.397    
     21000   21             75.36701      -17.580136      0.034889986            0  -28749.02       38.334576     -28710.686     -28749.02       0             -28749.02      -30163.83      -67.277304      1482.0869     -28735.374     -30.71105      -28741.397    
     22000   22             77.171549      12.57504       0.034889986            0  -28748.64       39.252434     -28709.388     -28748.64       0             -28748.64      -30163.346     -67.336549      1482.0431     -28691.728     -32.001472     -28741.389    
     23000   23             76.74144       0.32542241     0.034889986            0  -28749.996      39.033664     -28710.962     -28749.996      0             -28749.996     -30165.179     -67.305893      1482.4898     -28710.505     -30.441795     -28741.404    
     24000   24             76.038065      5.7171649      0.034889986            0  -28748.605      38.6759       -28709.929     -28748.605      0             -28748.605     -30162.631     -67.333244      1481.3598     -28701.9       -31.470067     -28741.399    
     25000   25             78.612273      11.31711       0.034889986            0  -28750.058      39.985242     -28710.073     -28750.058      0             -28750.058     -30164.888     -67.335104      1482.165      -28694.18      -31.329288     -28741.402    
     26000   26             77.235876     -8.2385594      0.034889986            0  -28749.441      39.285153     -28710.155     -28749.441      0             -28749.441     -30165.156     -67.269013      1482.9845     -28721.725     -31.249717     -28741.405    
     27000   27             79.749455     -11.91282       0.034889986            0  -28749.916      40.563657     -28709.352     -28749.916      0             -28749.916     -30165.699     -67.257169      1483.0403     -28726.082     -32.055855     -28741.408    
     28000   28             75.443708      10.839321      0.034889986            0  -28748.957      38.373587     -28710.584     -28748.957      0             -28748.957     -30163.282     -67.326348      1481.6508     -28695.362     -30.808411     -28741.392    
     29000   29             75.115317     -4.4059635      0.034889986            0  -28749.141      38.206555     -28710.934     -28749.141      0             -28749.141     -30163.984     -67.290805      1482.1339     -28717.122     -30.465153     -28741.4      
     30000   30             77.302178      12.755824      0.034889986            0  -28748.601      39.318877     -28709.282     -28748.601      0             -28748.601     -30163.841     -67.333871      1482.5741     -28691.368     -32.106782     -28741.388    
     31000   31             77.0455       -18.085635      0.034889986            0  -28749.49       39.188321     -28710.301     -28749.49       0             -28749.49      -30163.912     -67.259636      1481.682      -28735.7       -31.100487     -28741.402    
     32000   32             78.068124     -12.159836      0.034889986            0  -28749.292      39.708467     -28709.583     -28749.292      0             -28749.292     -30164.086     -67.275625      1482.0699     -28726.66      -31.815304     -28741.399    
     33000   33             75.745275      12.028285      0.034889986            0  -28749.787      38.526976     -28711.26      -28749.787      0             -28749.787     -30164.612     -67.341971      1482.1663     -28694.369     -30.139681     -28741.4      
     34000   34             77.326069      14.298899      0.034889986            0  -28749.056      39.331029     -28709.725     -28749.056      0             -28749.056     -30163.877     -67.338531      1482.1594     -28689.645     -31.671537     -28741.397    
     35000   35             77.686465      7.5294896      0.034889986            0  -28749.482      39.514341     -28709.967     -28749.482      0             -28749.482     -30164.193     -67.319232      1482.0309     -28699.393     -31.428574     -28741.396    
     36000   36             76.664777     -13.600107      0.034889986            0  -28749.662      38.99467      -28710.667     -28749.662      0             -28749.662     -30164.03      -67.262424      1481.6306     -28729.766     -30.729134     -28741.396    
     37000   37             76.885538     -24.890272      0.034889986            0  -28749.391      39.106958     -28710.284     -28749.391      0             -28749.391     -30165.116     -67.237125      1482.9621     -28745.238     -31.121004     -28741.405    
     38000   38             77.376801     -25.395706      0.034889986            0  -28749.324      39.356833     -28709.967     -28749.324      0             -28749.324     -30165.427     -67.232419      1483.3359     -28745.631     -31.426054     -28741.393    
     39000   39             76.718108      18.907821      0.034889986            0  -28748.815      39.021797     -28709.793     -28748.815      0             -28748.815     -30162.802     -67.349947      1481.3378     -28683.24      -31.601768     -28741.395    
     40000   40             77.921217      37.204125      0.034889986            0  -28749.267      39.633744     -28709.633     -28749.267      0             -28749.267     -30163.398     -67.393017      1481.5242     -28657.386     -31.772663     -28741.406    
     41000   41             75.85915      -13.965442      0.034889986            0  -28749.778      38.584897     -28711.193     -28749.778      0             -28749.778     -30164.387     -67.267815      1481.8769     -28730.805     -30.214368     -28741.407    
     42000   42             76.417563     -24.313738      0.034889986            0  -28748.685      38.868928     -28709.816     -28748.685      0             -28748.685     -30164.457     -67.22489       1482.9972     -28743.961     -31.585848     -28741.402    
     43000   43             75.173414     -5.0270048      0.034889986            0  -28749.699      38.236105     -28711.463     -28749.699      0             -28749.699     -30165.037     -67.270494      1482.6078     -28718.523     -29.952615     -28741.416    
     44000   44             77.127268      14.267068      0.034889986            0  -28749.374      39.229911     -28710.144     -28749.374      0             -28749.374     -30164.438     -67.339749      1482.4038     -28690.108     -31.262804     -28741.407    
     45000   45             74.942888      3.0587391      0.034889986            0  -28749.037      38.118851     -28710.918     -28749.037      0             -28749.037     -30164.834     -67.306902      1483.1034     -28706.623     -30.477388     -28741.396    
     46000   46             77.352998     -5.5760188      0.034889986            0  -28748.973      39.344726     -28709.629     -28748.973      0             -28748.973     -30163.717     -67.267216      1482.0108     -28717.459     -31.773593     -28741.402    
     47000   47             75.982501     -1.6597431      0.034889986            0  -28749.253      38.647638     -28710.606     -28749.253      0             -28749.253     -30164.398     -67.292122      1482.4362     -28712.937     -30.802715     -28741.409    
     48000   48             76.388643     -1.6961166      0.034889986            0  -28749.957      38.854218     -28711.103     -28749.957      0             -28749.957     -30165.262     -67.29235       1482.5974     -28713.485     -30.310274     -28741.413    
     49000   49             77.309465     -4.3895681      0.034889986            0  -28748.697      39.322584     -28709.375     -28748.697      0             -28748.697     -30163.674     -67.286412      1482.2632     -28715.539     -32.025788     -28741.4      
     50000   50             76.938393     -9.6407954      0.034889986            0  -28749.879      39.133842     -28710.745     -28749.879      0             -28749.879     -30165.458     -67.266876      1482.8455     -28724.284     -30.668383     -28741.413    
     51000   51             76.703078      3.4392471      0.034889986            0  -28749.248      39.014152     -28710.234     -28749.248      0             -28749.248     -30164.885     -67.294895      1482.9323     -28705.404     -31.169886     -28741.403    
     52000   52             77.149275     -2.3112128      0.034889986            0  -28749.135      39.241105     -28709.894     -28749.135      0             -28749.135     -30165.185     -67.271516      1483.3218     -28713.139     -31.500139     -28741.394    
     53000   53             77.272603     -18.791386      0.034889986            0  -28749.385      39.303834     -28710.082     -28749.385      0             -28749.385     -30164.618     -67.244423      1482.477      -28736.471     -31.319863     -28741.401    
     54000   54             76.708385     -29.024041      0.034889986            0  -28750.542      39.016851     -28711.526     -28750.542      0             -28750.542     -30166.23      -67.22284       1482.911      -28752.285     -29.895847     -28741.421    
     55000   55             76.537999     -6.1077971      0.034889986            0  -28748.734      38.930186     -28709.804     -28748.734      0             -28748.734     -30165.449     -67.258587      1483.9738     -28718.381     -31.58904      -28741.393    
     56000   56             74.936296     -1.9034121      0.034889986            0  -28750.552      38.115498     -28712.437     -28750.552      0             -28750.552     -30166.535     -67.270829      1483.2538     -28715.11      -28.979411     -28741.416    
     57000   57             76.991613      8.2595215      0.034889986            0  -28748.794      39.160912     -28709.633     -28748.794      0             -28748.794     -30163.766     -67.301666      1482.2737     -28698.033     -31.762979     -28741.396    
     58000   58             75.216159      2.2336621      0.034889986            0  -28749.698      38.257847     -28711.44      -28749.698      0             -28749.698     -30165.345     -67.300107      1482.9468     -28708.304     -29.961608     -28741.402    
     59000   59             77.419239     -12.551133      0.034889986            0  -28748.516      39.378419     -28709.138     -28748.516      0             -28748.516     -30164.097     -67.256519      1482.8378     -28726.764     -32.264318     -28741.402    
     60000   60             76.957216     -15.256085      0.034889986            0  -28749.608      39.143416     -28710.465     -28749.608      0             -28749.608     -30164.143     -67.253273      1481.7884     -28731.89      -30.942755     -28741.408    
     61000   61             78.580326      0.8527982      0.034889986            0  -28748.774      39.968992     -28708.805     -28748.774      0             -28748.774     -30164.636     -67.285958      1483.148      -28707.608     -32.595044     -28741.4      
     62000   62             75.742334     -10.224633      0.034889986            0  -28748.758      38.52548      -28710.232     -28748.758      0             -28748.758     -30164.023     -67.253132      1482.5185     -28724.591     -31.165643     -28741.398    
     63000   63             75.892444      5.0558647      0.034889986            0  -28748.336      38.601832     -28709.734     -28748.336      0             -28748.336     -30164.081     -67.292973      1483.0374     -28702.634     -31.657878     -28741.392    
     64000   64             76.574488      11.734761      0.034889986            0  -28748.255      38.948746     -28709.306     -28748.255      0             -28748.255     -30164.476     -67.312952      1483.534      -28692.827     -32.083233     -28741.39     
     65000   65             76.393532      7.8845795      0.034889986            0  -28749.003      38.856704     -28710.147     -28749.003      0             -28749.003     -30164.727     -67.315387      1483.0396     -28699.074     -31.251407     -28741.398    
     66000   66             75.864892      4.6622494      0.034889986            0  -28749.38       38.587818     -28710.792     -28749.38       0             -28749.38      -30164.661     -67.30541       1482.587      -28704.245     -30.618925     -28741.411    
     67000   67             77.953026     -2.6846121      0.034889986            0  -28749.568      39.649924     -28709.918     -28749.568      0             -28749.568     -30165.982     -67.275403      1483.6886     -28713.688     -31.49034      -28741.409    
     68000   68             75.073908     -30.537563      0.034889986            0  -28749.369      38.185493     -28711.184     -28749.369      0             -28749.369     -30164.193     -67.209646      1482.0329     -28754.069     -30.217779     -28741.402    
     69000   69             76.472531     -2.4493468      0.034889986            0  -28749.168      38.896886     -28710.271     -28749.168      0             -28749.168     -30163.826     -67.289005      1481.9473     -28713.711     -31.130014     -28741.401    
     70000   70             78.905703      1.8249419      0.034889986            0  -28749.604      40.134492     -28709.47      -28749.604      0             -28749.604     -30165.157     -67.300864      1482.854      -28706.907     -31.935044     -28741.405    
     71000   71             77.514381     -7.5356409      0.034889986            0  -28748.25       39.426812     -28708.823     -28748.25       0             -28748.25      -30162.628     -67.280038      1481.6581     -28719.406     -32.572931     -28741.396    
     72000   72             75.736738      10.13861       0.034889986            0  -28748.923      38.522634     -28710.401     -28748.923      0             -28748.923     -30164.762     -67.314322      1483.1531     -28696.163     -30.996871     -28741.398    
     73000   73             79.983047     -14.869959      0.034889986            0  -28748.995      40.682471     -28708.313     -28748.995      0             -28748.995     -30164.777     -67.256163      1483.0378     -28729.195     -33.093786     -28741.407    
     74000   74             77.460938      7.483905       0.034889986            0  -28749.471      39.399629     -28710.071     -28749.471      0             -28749.471     -30165.419     -67.308452      1483.2567     -28699.561     -31.339103     -28741.41     
     75000   75             74.827374      6.7083912      0.034889986            0  -28748.522      38.060096     -28710.462     -28748.522      0             -28748.522     -30163.769     -67.322357      1482.5694     -28701.041     -30.939168     -28741.401    
     76000   76             76.897498     -3.5067754      0.034889986            0  -28748.942      39.113041     -28709.829     -28748.942      0             -28748.942     -30163.983     -67.288194      1482.3292     -28714.753     -31.568369     -28741.397    
     77000   77             75.155743     -21.800034      0.034889986            0  -28749.438      38.227117     -28711.211     -28749.438      0             -28749.438     -30164.865     -67.242883      1482.6696     -28741.826     -30.190956     -28741.402    
     78000   78             77.25946       22.10594       0.034889986            0  -28748.471      39.297149     -28709.174     -28748.471      0             -28748.471     -30163.263     -67.344947      1482.1371     -28678.129     -32.218568     -28741.392    
     79000   79             76.683798      31.815413      0.034889986            0  -28749.47       39.004345     -28710.465     -28749.47       0             -28749.47      -30164.812     -67.365742      1482.7083     -28665.786     -30.936935     -28741.402    
     80000   80             76.087576      1.5023542      0.034889986            0  -28749.828      38.701083     -28711.127     -28749.828      0             -28749.828     -30165.44      -67.303769      1482.9154     -28709.017     -30.286602     -28741.413    
     81000   81             78.699524      19.385757      0.034889986            0  -28749.254      40.029621     -28709.224     -28749.254      0             -28749.254     -30163.991     -67.345999      1482.0836     -28682         -32.182042     -28741.406    
     82000   82             75.509868      3.4841002      0.034889986            0  -28749.252      38.407239     -28710.845     -28749.252      0             -28749.252     -30164.637     -67.28709       1482.6725     -28705.952     -30.554986     -28741.4      
     83000   83             78.022937      2.9667289      0.034889986            0  -28749.551      39.685483     -28709.865     -28749.551      0             -28749.551     -30165.128     -67.316057      1482.8936     -28705.699     -31.542507     -28741.408    
     84000   84             77.223011      20.432707      0.034889986            0  -28749.193      39.27861      -28709.915     -28749.193      0             -28749.193     -30164.013     -67.34095       1482.1602     -28681.22      -31.485567     -28741.4      
     85000   85             76.166144      20.276548      0.034889986            0  -28749.369      38.741046     -28710.628     -28749.369      0             -28749.369     -30164.391     -67.33061       1482.3528     -28682.153     -30.779887     -28741.408    
     86000   86             77.188064      5.6345618      0.034889986            0  -28749.203      39.260834     -28709.942     -28749.203      0             -28749.203     -30165.353     -67.295914      1483.4461     -28702.029     -31.457618     -28741.4      
     87000   87             76.727689     -19.151246      0.034889986            0  -28749.855      39.02667      -28710.828     -28749.855      0             -28749.855     -30166.158     -67.242588      1483.5462     -28737.723     -30.582143     -28741.41     
     88000   88             79.421839      13.078926      0.034889986            0  -28749.321      40.397019     -28708.924     -28749.321      0             -28749.321     -30165.42      -67.320659      1483.4189     -28690.557     -32.480812     -28741.405    
     89000   89             76.670324      20.530341      0.034889986            0  -28749.359      38.997492     -28710.361     -28749.359      0             -28749.359     -30164.502     -67.351387      1482.4946     -28681.53      -31.042893     -28741.404    
     90000   90             76.422786      13.044503      0.034889986            0  -28748.582      38.871584     -28709.711     -28748.582      0             -28748.582     -30164.29      -67.319578      1483.0275     -28691.392     -31.678876     -28741.389    
     91000   91             75.64216      -4.3866158      0.034889986            0  -28749.485      38.474528     -28711.011     -28749.485      0             -28749.485     -30164.702     -67.294922      1482.5115     -28717.171     -30.394486     -28741.405    
     92000   92             78.659191      15.153182      0.034889986            0  -28749.626      40.009107     -28709.617     -28749.626      0             -28749.626     -30164.583     -67.332463      1482.2901     -28688.336     -31.791183     -28741.408    
     93000   93             77.925509      14.545182      0.034889986            0  -28750.162      39.635928     -28710.526     -28750.162      0             -28750.162     -30165.5       -67.314923      1482.6529     -28690.099     -30.880821     -28741.407    
     94000   94             76.49427       0.79304651     0.034889986            0  -28749.066      38.907944     -28710.158     -28749.066      0             -28749.066     -30164.661     -67.282712      1482.8776     -28709.044     -31.242709     -28741.4      
     95000   95             77.521472     -13.443803      0.034889986            0  -28748.224      39.430418     -28708.793     -28748.224      0             -28748.224     -30163.198     -67.258935      1482.2334     -28727.673     -32.595088     -28741.388    
     96000   96             78.368542     -5.0996814      0.034889986            0  -28749.457      39.861271     -28709.596     -28749.457      0             -28749.457     -30165.297     -67.276454      1483.116      -28716.758     -31.810135     -28741.406    
     97000   97             76.156911      2.9683259      0.034889986            0  -28748.846      38.73635      -28710.11      -28748.846      0             -28748.846     -30163.948     -67.311198      1482.4123     -28705.942     -31.286371     -28741.396    
     98000   98             76.189975      5.6911092      0.034889986            0  -28749.17       38.753168     -28710.416     -28749.17       0             -28749.17      -30163.547     -67.321143      1481.6981     -28702.424     -30.992759     -28741.409    
     99000   99             77.445172      14.006484      0.034889986            0  -28749.132      39.391609     -28709.741     -28749.132      0             -28749.132     -30163.804     -67.322369      1481.9938     -28690.071     -31.658711     -28741.399    
    100000   100            76.332403      2.5437593      0.034889986            0  -28749.024      38.825612     -28710.198     -28749.024      0             -28749.024     -30163.755     -67.299293      1482.0305     -28706.626     -31.200074     -28741.398    
    101000   101            77.251947     -13.921791      0.034889986            0  -28748.778      39.293328     -28709.485     -28748.778      0             -28748.778     -30164.811     -67.250794      1483.2837     -28729.036     -31.908115     -28741.393    
    102000   102            75.638343     -17.099925      0.034889986            0  -28749.196      38.472586     -28710.723     -28749.196      0             -28749.196     -30165.106     -67.23318       1483.1429     -28734.737     -30.672997     -28741.396    
    103000   103            77.12187       22.583485      0.034889986            0  -28748.908      39.227165     -28709.681     -28748.908      0             -28748.908     -30164.666     -67.351479      1483.1092     -28677.966     -31.717672     -28741.399    
    104000   104            76.226554      17.833048      0.034889986            0  -28749.575      38.771773     -28710.803     -28749.575      0             -28749.575     -30165.196     -67.331372      1482.9524     -28685.759     -30.601621     -28741.404    
    105000   105            77.965081     -2.0619157      0.034889986            0  -28750.344      39.656055     -28710.688     -28750.344      0             -28750.344     -30165.659     -67.280567      1482.595      -28713.584     -30.730329     -28741.418    
    106000   106            77.343724     -0.60784743     0.034889986            0  -28749.409      39.340009     -28710.069     -28749.409      0             -28749.409     -30165.264     -67.279686      1483.1352     -28710.922     -31.34006      -28741.409    
    107000   107            79.163064     -3.0445676      0.034889986            0  -28749.077      40.265396     -28708.812     -28749.077      0             -28749.077     -30164.881     -67.281118      1483.0854     -28713.087     -32.594882     -28741.406    
    108000   108            75.981468     -1.2492876      0.034889986            0  -28749.13       38.647113     -28710.483     -28749.13       0             -28749.13      -30164.705     -67.274989      1482.8505     -28712.237     -30.913439     -28741.396    
    109000   109            75.605936     -12.975703      0.034889986            0  -28749.737      38.456103     -28711.281     -28749.737      0             -28749.737     -30165.541     -67.255473      1483.06       -28729.503     -30.124864     -28741.405    
    110000   110            77.046937     -23.64683       0.034889986            0  -28748.835      39.189052     -28709.646     -28748.835      0             -28748.835     -30165.168     -67.213929      1483.5467     -28742.855     -31.751352     -28741.398    
    111000   111            76.60286      -7.8853178      0.034889986            0  -28749.754      38.963177     -28710.791     -28749.754      0             -28749.754     -30163.653     -67.273003      1481.1719     -28721.865     -30.615042     -28741.406    
    112000   112            76.70389       2.8205818      0.034889986            0  -28748.915      39.014565     -28709.9       -28748.915      0             -28748.915     -30163.578     -67.289329      1481.9528     -28705.939     -31.490868     -28741.391    
    113000   113            78.793254     -8.3714948      0.034889986            0  -28749.097      40.077296     -28709.019     -28749.097      0             -28749.097     -30164.131     -67.275163      1482.3091     -28720.776     -32.379692     -28741.399    
    114000   114            77.919315     -5.9205711      0.034889986            0  -28749.042      39.632777     -28709.409     -28749.042      0             -28749.042     -30165.255     -67.267943      1483.481      -28717.724     -31.988102     -28741.397    
    115000   115            77.636511     -6.1263794      0.034889986            0  -28750.049      39.488932     -28710.56      -28750.049      0             -28750.049     -30165.327     -67.260215      1482.5376     -28719.164     -30.851817     -28741.412    
    116000   116            76.42771      -2.509105       0.034889986            0  -28748.771      38.874089     -28709.897     -28748.771      0             -28748.771     -30165.592     -67.267651      1484.0891     -28713.42      -31.495547     -28741.392    
    117000   117            77.53025      -11.317936      0.034889986            0  -28749.439      39.434883     -28710.004     -28749.439      0             -28749.439     -30164.66      -67.258782      1482.479      -28725.899     -31.402202     -28741.407    
    118000   118            78.049309     -4.7015683      0.034889986            0  -28748.958      39.698897     -28709.26      -28748.958      0             -28748.958     -30164.077     -67.272515      1482.3913     -28715.862     -32.136173     -28741.396    
    119000   119            76.747938      0.013173778    0.034889986            0  -28749.894      39.036969     -28710.857     -28749.894      0             -28749.894     -30165.655     -67.28837       1483.0494     -28710.838     -30.551104     -28741.408    
    120000   120            76.024565      14.669865      0.034889986            0  -28748.936      38.669034     -28710.267     -28748.936      0             -28748.936     -30164.674     -67.328073      1483.0658     -28689.665     -31.134839     -28741.402    
    121000   121            77.890623     -17.765835      0.034889986            0  -28748.89       39.618183     -28709.272     -28748.89       0             -28748.89      -30164.053     -67.235424      1482.398      -28734.221     -32.130414     -28741.402    
    122000   122            77.777724     -4.3546535      0.034889986            0  -28749.729      39.560758     -28710.168     -28749.729      0             -28749.729     -30165.207     -67.284831      1482.7634     -28716.283     -31.237057     -28741.405    
    123000   123            77.813541      7.9002091      0.034889986            0  -28749.755      39.578976     -28710.177     -28749.755      0             -28749.755     -30165.258     -67.320395      1482.8232     -28699.082     -31.237367     -28741.414    
    124000   124            77.805219      10.87491       0.034889986            0  -28748.975      39.574743     -28709.401     -28748.975      0             -28748.975     -30164.209     -67.31583       1482.5496     -28694.129     -32.002713     -28741.403    
    125000   125            76.237557      18.89771       0.034889986            0  -28749.238      38.77737      -28710.461     -28749.238      0             -28749.238     -30164.936     -67.327804      1483.0251     -28683.922     -30.941476     -28741.402    
    126000   126            76.32593      -0.61206451     0.034889986            0  -28749.643      38.82232      -28710.821     -28749.643      0             -28749.643     -30165.088     -67.283422      1482.7287     -28711.68      -30.593167     -28741.414    
    127000   127            77.913855     -11.653993      0.034889986            0  -28749.009      39.63         -28709.379     -28749.009      0             -28749.009     -30163.73      -67.280191      1482.0013     -28725.745     -32.023384     -28741.402    
    128000   128            76.1732        11.658505      0.034889986            0  -28749.888      38.744635     -28711.143     -28749.888      0             -28749.888     -30165.64      -67.322114      1483.0747     -28694.77      -30.278306     -28741.421    
    129000   129            77.535808      24.459336      0.034889986            0  -28749.271      39.43771      -28709.834     -28749.271      0             -28749.271     -30163.75      -67.355673      1481.8341     -28675.484     -31.570839     -28741.405    
    130000   130            74.987693      3.3406604      0.034889986            0  -28748.507      38.14164      -28710.365     -28748.507      0             -28748.507     -30162.522     -67.315728      1481.3307     -28705.674     -31.038008     -28741.403    
    131000   131            76.355214      1.9610034      0.034889986            0  -28749.813      38.837215     -28710.976     -28749.813      0             -28749.813     -30165.23      -67.300845      1482.7175     -28708.222     -30.430771     -28741.407    
    132000   132            76.254044     -6.1339061      0.034889986            0  -28749.073      38.785756     -28710.288     -28749.073      0             -28749.073     -30164.644     -67.27058       1482.841      -28718.902     -31.114254     -28741.402    
    133000   133            77.613492     -0.2510176      0.034889986            0  -28750.142      39.477224     -28710.665     -28750.142      0             -28750.142     -30166.632     -67.282145      1483.7721     -28711.018     -30.746063     -28741.411    
    134000   134            76.921742      4.0458338      0.034889986            0  -28748.672      39.125372     -28709.546     -28748.672      0             -28748.672     -30163.651     -67.291056      1482.2703     -28703.865     -31.851298     -28741.398    
    135000   135            78.138384     -4.8540997      0.034889986            0  -28749.939      39.744204     -28710.195     -28749.939      0             -28749.939     -30165.846     -67.290725      1483.1976     -28717.012     -31.218184     -28741.413    
    136000   136            77.754216      3.1262225      0.034889986            0  -28749.336      39.548801     -28709.787     -28749.336      0             -28749.336     -30165.34      -67.283461      1483.2877     -28705.397     -31.61742      -28741.405    
    137000   137            77.789091      18.365131      0.034889986            0  -28749.289      39.56654      -28709.722     -28749.289      0             -28749.289     -30164.6       -67.319774      1482.6314     -28683.931     -31.681028     -28741.403    
    138000   138            76.10031      -17.68566       0.034889986            0  -28749.217      38.707561     -28710.509     -28749.217      0             -28749.217     -30165.134     -67.236018      1483.1531     -28735.346     -30.892064     -28741.401    
    139000   139            76.187455     -16.915397      0.034889986            0  -28748.836      38.751886     -28710.084     -28748.836      0             -28748.836     -30163.955     -67.234887      1482.3536     -28733.839     -31.318573     -28741.403    
    140000   140            79.029727     -14.676975      0.034889986            0  -28749.485      40.197575     -28709.288     -28749.485      0             -28749.485     -30165.419     -67.241059      1483.1751     -28729.899     -32.116482     -28741.404    
    141000   141            76.201066      4.7993508      0.034889986            0  -28749.536      38.758809     -28710.777     -28749.536      0             -28749.536     -30165.374     -67.315791      1483.1543     -28704.037     -30.629255     -28741.406    
    142000   142            75.852588      13.192494      0.034889986            0  -28749.117      38.581559     -28710.536     -28749.117      0             -28749.117     -30164.353     -67.322344      1482.5579     -28692.009     -30.860886     -28741.396    
    143000   143            74.100755      9.5556047      0.034889986            0  -28748.774      37.69051      -28711.084     -28748.774      0             -28748.774     -30163.364     -67.318147      1481.9085     -28697.664     -30.314391     -28741.398    
    144000   144            77.669383      3.0018634      0.034889986            0  -28749.05       39.505652     -28709.545     -28749.05       0             -28749.05      -30163.969     -67.294009      1482.2126     -28705.329     -31.859441     -28741.404    
    145000   145            77.250229      6.3823289      0.034889986            0  -28749.593      39.292454     -28710.301     -28749.593      0             -28749.593     -30165.171     -67.306193      1482.8844     -28701.338     -31.104792     -28741.405    
    146000   146            76.007591     -4.8194579      0.034889986            0  -28749.785      38.6604       -28711.125     -28749.785      0             -28749.785     -30165.15      -67.278444      1482.6431     -28717.893     -30.278521     -28741.403    
    147000   147            77.493892     -10.364083      0.034889986            0  -28749.433      39.41639      -28710.017     -28749.433      0             -28749.433     -30163.967     -67.254366      1481.788      -28724.571     -31.384717     -28741.401    
    148000   148            77.565661     -19.813159      0.034889986            0  -28748.334      39.452895     -28708.881     -28748.334      0             -28748.334     -30163.803     -67.215604      1482.6846     -28736.705     -32.511942     -28741.393    
    149000   149            76.404484      9.5749524      0.034889986            0  -28749.548      38.862275     -28710.686     -28749.548      0             -28749.548     -30165.065     -67.302728      1482.8196     -28697.239     -30.719884     -28741.405    
    150000   150            76.158826     -15.743369      0.034889986            0  -28749.338      38.737324     -28710.601     -28749.338      0             -28749.338     -30163.675     -67.256798      1481.5939     -28732.71      -30.795487     -28741.397    
    151000   151            76.455918      14.885161      0.034889986            0  -28748.919      38.888437     -28710.031     -28748.919      0             -28748.919     -30164.823     -67.318647      1483.2226     -28689.127     -31.364667     -28741.396    
    152000   152            73.820397     -7.9569052      0.034889986            0  -28749.757      37.547909     -28712.209     -28749.757      0             -28749.757     -30164.851     -67.260957      1482.3548     -28723.384     -29.198361     -28741.408    
    153000   153            77.815768     -15.580464      0.034889986            0  -28749.697      39.580109     -28710.117     -28749.697      0             -28749.697     -30165.433     -67.241155      1482.9775     -28731.997     -31.285391     -28741.402    
    154000   154            76.742076      4.1098725      0.034889986            0  -28748.366      39.033988     -28709.332     -28748.366      0             -28748.366     -30163.321     -67.299656      1482.2547     -28703.56      -32.059969     -28741.392    
    155000   155            77.842999      20.078564      0.034889986            0  -28749.901      39.59396      -28710.307     -28749.901      0             -28749.901     -30165.226     -67.339068      1482.6646     -28682.109     -31.104599     -28741.411    
    156000   156            78.383734      1.1518136      0.034889986            0  -28748.068      39.868998     -28708.199     -28748.068      0             -28748.068     -30163.783     -67.277184      1482.9919     -28706.582     -33.192367     -28741.392    
    157000   157            76.003682     -2.4015028      0.034889986            0  -28748.683      38.658412     -28710.024     -28748.683      0             -28748.683     -30164.016     -67.273625      1482.6072     -28713.397     -31.372543     -28741.397    
    158000   158            76.153036      1.4021419      0.034889986            0  -28749.714      38.734379     -28710.98      -28749.714      0             -28749.714     -30165.189     -67.295511      1482.7703     -28709.01      -30.427481     -28741.407    
    159000   159            77.637987      15.102873      0.034889986            0  -28749.357      39.489682     -28709.867     -28749.357      0             -28749.357     -30165.12      -67.31605       1483.0792     -28688.658     -31.531292     -28741.399    
    160000   160            75.3634       -6.3197439      0.034889986            0  -28748.988      38.332739     -28710.655     -28748.988      0             -28748.988     -30163.893     -67.266535      1482.1718     -28719.53      -30.741716     -28741.397    
    161000   161            77.67368      -25.119015      0.034889986            0  -28749.885      39.507837     -28710.378     -28749.885      0             -28749.885     -30166.094     -67.23725       1483.4462     -28745.653     -31.03283      -28741.41     
    162000   162            76.867612     -10.282534      0.034889986            0  -28749.005      39.09784      -28709.907     -28749.005      0             -28749.005     -30164.357     -67.2525        1482.6043     -28724.348     -31.495309     -28741.403    
    163000   163            75.554434      3.1636979      0.034889986            0  -28749.206      38.429907     -28710.776     -28749.206      0             -28749.206     -30164.498     -67.282461      1482.5743     -28706.333     -30.624534     -28741.4      
    164000   164            77.546135      11.498737      0.034889986            0  -28749.061      39.442963     -28709.618     -28749.061      0             -28749.061     -30164.859     -67.31126       1483.1084     -28693.47      -31.769954     -28741.388    
    165000   165            77.78526       15.120555      0.034889986            0  -28749.812      39.564591     -28710.248     -28749.812      0             -28749.812     -30165.707     -67.333599      1483.2285     -28689.013     -31.16367      -28741.411    
    166000   166            78.233014      17.385924      0.034889986            0  -28748.711      39.792336     -28708.918     -28748.711      0             -28748.711     -30164.029     -67.332943      1482.6508     -28684.503     -32.480857     -28741.399    
    167000   167            77.506338      21.037408      0.034889986            0  -28750.071      39.422721     -28710.648     -28750.071      0             -28750.071     -30165.681     -67.340757      1482.9508     -28681.105     -30.765804     -28741.414    
    168000   168            77.67416       16.684504      0.034889986            0  -28748.915      39.508082     -28709.407     -28748.915      0             -28748.915     -30163.65      -67.33415       1482.0694     -28685.976     -31.992387     -28741.399    
    169000   169            76.527917     -9.1803641      0.034889986            0  -28750.481      38.925058     -28711.556     -28750.481      0             -28750.481     -30167.397     -67.261481      1484.1771     -28724.448     -29.857877     -28741.414    
    170000   170            78.287184     -22.99759       0.034889986            0  -28748.826      39.819889     -28709.006     -28748.826      0             -28748.826     -30164.393     -67.229252      1482.7961     -28741.303     -32.389134     -28741.395    
    171000   171            77.110695     -2.1058074      0.034889986            0  -28749.659      39.221482     -28710.437     -28749.659      0             -28749.659     -30166.234     -67.272281      1483.8472     -28713.395     -30.969912     -28741.407    
    172000   172            77.274661     -1.3473385      0.034889986            0  -28748.689      39.304881     -28709.384     -28748.689      0             -28748.689     -30164.022     -67.275486      1482.6085     -28711.276     -32.016698     -28741.401    
    173000   173            76.7086        6.210652       0.034889986            0  -28749.676      39.01696      -28710.659     -28749.676      0             -28749.676     -30164.991     -67.308639      1482.6235     -28701.938     -30.751517     -28741.411    
    174000   174            77.942786      7.8213237      0.034889986            0  -28749.581      39.644715     -28709.936     -28749.581      0             -28749.581     -30165.854     -67.312776      1483.5861     -28698.953     -31.466784     -28741.403    
    175000   175            77.376048      17.682397      0.034889986            0  -28748.861      39.35645      -28709.505     -28748.861      0             -28748.861     -30164.492     -67.330445      1482.9619     -28684.672     -31.889962     -28741.395    
    176000   176            76.097046     -0.37570673     0.034889986            0  -28749.544      38.705901     -28710.838     -28749.544      0             -28749.544     -30165.154     -67.299959      1482.9105     -28711.366     -30.569951     -28741.408    
    177000   177            77.655448      2.3722055      0.034889986            0  -28749.325      39.498564     -28709.826     -28749.325      0             -28749.325     -30164.421     -67.286436      1482.3827     -28706.495     -31.577955     -28741.404    
    178000   178            76.827394     -21.061048      0.034889986            0  -28749.39       39.077383     -28710.313     -28749.39       0             -28749.39      -30165.119     -67.235288      1482.9642     -28739.89      -31.088479     -28741.401    
    179000   179            75.60613       14.962261      0.034889986            0  -28750.2        38.456202     -28711.744     -28750.2        0             -28750.2       -30165.768     -67.347453      1482.9155     -28690.732     -29.669598     -28741.414    
    180000   180            75.973472      39.099344      0.034889986            0  -28748.077      38.643046     -28709.433     -28748.077      0             -28748.077     -30163.257     -67.391508      1482.5719     -28654.525     -31.960705     -28741.394    
    181000   181            77.473794      2.3393757      0.034889986            0  -28750.403      39.406168     -28710.997     -28750.403      0             -28750.403     -30166.323     -67.298121      1483.2173     -28707.712     -30.414372     -28741.412    
    182000   182            76.657747     -6.3200351      0.034889986            0  -28748.551      38.991094     -28709.56      -28748.551      0             -28748.551     -30163.861     -67.261448      1482.5714     -28718.435     -31.833605     -28741.394    
    183000   183            78.004241     -1.386852       0.034889986            0  -28749.224      39.675974     -28709.548     -28749.224      0             -28749.224     -30165.022     -67.270783      1483.068      -28711.496     -31.851089     -28741.399    
    184000   184            75.424224     -11.459305      0.034889986            0  -28749.662      38.363677     -28711.299     -28749.662      0             -28749.662     -30165.495     -67.25502       1483.0876     -28727.392     -30.105426     -28741.404    
    185000   185            77.028431     -10.574451      0.034889986            0  -28749.078      39.179639     -28709.898     -28749.078      0             -28749.078     -30165.09      -67.27024       1483.2819     -28724.748     -31.497315     -28741.396    
    186000   186            78.323345     -9.7720853      0.034889986            0  -28748.761      39.838282     -28708.923     -28748.761      0             -28748.761     -30164.535     -67.264445      1483.0384     -28722.646     -32.468218     -28741.391    
    187000   187            76.51159      -14.904485      0.034889986            0  -28749.458      38.916753     -28710.542     -28749.458      0             -28749.458     -30164.978     -67.244756      1482.7645     -28731.472     -30.861051     -28741.403    
    188000   188            77.923205      10.380936      0.034889986            0  -28750.077      39.634756     -28710.442     -28750.077      0             -28750.077     -30165.815     -67.317899      1483.0564     -28695.863     -30.966886     -28741.409    
    189000   189            77.438783      23.799992      0.034889986            0  -28748.606      39.38836      -28709.217     -28748.606      0             -28748.606     -30163.401     -67.360644      1482.1562     -28675.794     -32.185661     -28741.403    
    190000   190            76.158003      6.956603       0.034889986            0  -28748.74       38.736905     -28710.003     -28748.74       0             -28748.74      -30163.891     -67.323041      1482.4742     -28700.234     -31.393447     -28741.396    
    191000   191            77.581467      0.45734145     0.034889986            0  -28749.343      39.460934     -28709.882     -28749.343      0             -28749.343     -30164.616     -67.280642      1482.5536     -28709.24      -31.514354     -28741.396    
    192000   192            76.444675      9.7295364      0.034889986            0  -28749.944      38.882718     -28711.062     -28749.944      0             -28749.944     -30166.324     -67.296868      1483.6762     -28697.398     -30.339432     -28741.401    
    193000   193            76.08642      -37.35951       0.034889986            0  -28749.222      38.700496     -28710.522     -28749.222      0             -28749.222     -30164.321     -67.18742       1482.2858     -28762.987     -30.875226     -28741.397    
    194000   194            78.675901     -2.013577       0.034889986            0  -28749.445      40.017606     -28709.427     -28749.445      0             -28749.445     -30164.751     -67.27478       1482.5808     -28712.255     -31.973413     -28741.401    
    195000   195            77.58904      -14.551717      0.034889986            0  -28749.093      39.464786     -28709.628     -28749.093      0             -28749.093     -30164.514     -67.254552      1482.6758     -28730.064     -31.767849     -28741.396    
    196000   196            77.852154      3.1156757      0.034889986            0  -28750.263      39.598616     -28710.665     -28750.263      0             -28750.263     -30165.109     -67.294319      1482.1403     -28706.289     -30.747764     -28741.412    
    197000   197            74.895503     -19.644639      0.034889986            0  -28748.983      38.094749     -28710.889     -28748.983      0             -28748.983     -30164.336     -67.243091      1482.5962     -28738.476     -30.5085       -28741.397    
    198000   198            74.77162      -42.342053      0.034889986            0  -28748.983      38.031737     -28710.951     -28748.983      0             -28748.983     -30164.318     -67.184626      1482.5201     -28770.414     -30.44434      -28741.395    
    199000   199            77.734458     -18.051261      0.034889986            0  -28748.8        39.538752     -28709.261     -28748.8        0             -28748.8       -30164.423     -67.231848      1482.8548     -28734.611     -32.127882     -28741.389    
    200000   200            76.545552      20.451378      0.034889986            0  -28748.93       38.934028     -28709.996     -28748.93       0             -28748.93      -30164.018     -67.342071      1482.431      -28681.275     -31.403234     -28741.399    
    201000   201            76.072563      19.87775       0.034889986            0  -28750.263      38.693447     -28711.569     -28750.263      0             -28750.263     -30165.985     -67.341028      1483.0637     -28683.654     -29.840961     -28741.41     
    202000   202            77.044045      4.9465155      0.034889986            0  -28749.855      39.187581     -28710.668     -28749.855      0             -28749.855     -30166.079     -67.298842      1483.5226     -28703.721     -30.730798     -28741.399    
    203000   203            78.286492      7.5826459      0.034889986            0  -28749.058      39.819537     -28709.239     -28749.058      0             -28749.058     -30164.751     -67.311899      1483.0045     -28698.59      -32.162467     -28741.401    
    204000   204            75.33222       6.5189529      0.034889986            0  -28748.678      38.31688      -28710.361     -28748.678      0             -28748.678     -30164.408     -67.300526      1483.0306     -28701.206     -31.035021     -28741.396    
    205000   205            77.993507     -4.9838791      0.034889986            0  -28748.847      39.670514     -28709.176     -28748.847      0             -28748.847     -30163.721     -67.275396      1482.1498     -28716.176     -32.212788     -28741.389    
    206000   206            75.92356      -5.055989       0.034889986            0  -28749.316      38.617658     -28710.698     -28749.316      0             -28749.316     -30164.638     -67.287558      1482.6097     -28717.798     -30.704985     -28741.403    
    207000   207            76.966919     -7.8183132      0.034889986            0  -28748.253      39.148351     -28709.105     -28748.253      0             -28748.253     -30163.319     -67.283065      1482.3488     -28720.084     -32.29396      -28741.398    
    208000   208            76.382796      18.046728      0.034889986            0  -28749.276      38.851244     -28710.425     -28749.276      0             -28749.276     -30164.46      -67.338467      1482.5224     -28685.081     -30.978661     -28741.403    
    209000   209            78.65594      -5.0477273      0.034889986            0  -28750          40.007453     -28709.992     -28750          0             -28750         -30165.804     -67.270346      1483.0743     -28717.081     -31.417864     -28741.41     
    210000   210            77.948069     -42.174665      0.034889986            0  -28748.834      39.647402     -28709.187     -28748.834      0             -28748.834     -30163.805     -67.171176      1482.1413     -28768.415     -32.19993      -28741.387    
    211000   211            76.244627     -15.008386      0.034889986            0  -28749.412      38.780966     -28710.631     -28749.412      0             -28749.412     -30165.441     -67.244983      1483.2741     -28731.708     -30.773032     -28741.404    
    212000   212            76.546028      14.773233      0.034889986            0  -28748.579      38.93427      -28709.645     -28748.579      0             -28748.579     -30163.453     -67.334422      1482.208      -28688.898     -31.748289     -28741.393    
    213000   213            76.061759      13.62125       0.034889986            0  -28749.665      38.687952     -28710.977     -28749.665      0             -28749.665     -30164.303     -67.335673      1481.9735     -28691.848     -30.428042     -28741.405    
    214000   214            77.088964      0.12137711     0.034889986            0  -28748.843      39.210428     -28709.632     -28748.843      0             -28748.843     -30164.151     -67.292883      1482.6009     -28709.462     -31.760899     -28741.393    
    215000   215            76.875842     -19.155856      0.034889986            0  -28749.209      39.102026     -28710.107     -28749.209      0             -28749.209     -30164.814     -67.257851      1482.8629     -28737.009     -31.297449     -28741.405    
    216000   216            76.748931      13.075055      0.034889986            0  -28749.28       39.037474     -28710.243     -28749.28       0             -28749.28      -30164.82      -67.320904      1482.8604     -28691.881     -31.157853     -28741.401    
    217000   217            78.540672     -12.917587      0.034889986            0  -28749.757      39.948823     -28709.808     -28749.757      0             -28749.757     -30163.627     -67.257424      1481.1272     -28727.949     -31.601453     -28741.41     
    218000   218            74.89179      -9.8817031      0.034889986            0  -28749.364      38.09286      -28711.271     -28749.364      0             -28749.364     -30164.628     -67.269473      1482.5334     -28725.148     -30.128111     -28741.399    
    219000   219            78.824002      25.033286      0.034889986            0  -28749.764      40.092935     -28709.672     -28749.764      0             -28749.764     -30165.113     -67.360516      1482.7087     -28674.516     -31.727963     -28741.399    
    220000   220            76.400005      16.987595      0.034889986            0  -28748.599      38.859997     -28709.739     -28748.599      0             -28748.599     -30163.199     -67.329149      1481.929      -28685.883     -31.648687     -28741.388    
    221000   221            76.007234     -1.7207233      0.034889986            0  -28749.869      38.660219     -28711.209     -28749.869      0             -28749.869     -30164.957     -67.294911      1482.3823     -28713.625     -30.196985     -28741.406    
    222000   222            76.581658      14.074563      0.034889986            0  -28749.053      38.952393     -28710.101     -28749.053      0             -28749.053     -30164.748     -67.330478      1483.025      -28690.336     -31.295847     -28741.397    
    223000   223            78.904514     -12.277941      0.034889986            0  -28747.971      40.133887     -28707.837     -28747.971      0             -28747.971     -30162.99      -67.273069      1482.2917     -28725.079     -33.555297     -28741.392    
    224000   224            77.450231     -1.303882       0.034889986            0  -28749.659      39.394183     -28710.264     -28749.659      0             -28749.659     -30165.378     -67.29051       1483.0095     -28712.096     -31.138891     -28741.403    
    225000   225            76.58961      -16.413952      0.034889986            0  -28749.029      38.956437     -28710.073     -28749.029      0             -28749.029     -30163.931     -67.257494      1482.159      -28733.123     -31.329629     -28741.402    
    226000   226            75.96417      -6.4361492      0.034889986            0  -28749.681      38.638314     -28711.043     -28749.681      0             -28749.681     -30165.723     -67.267313      1483.3096     -28720.081     -30.362503     -28741.405    
    227000   227            78.11622      -14.79041       0.034889986            0  -28749.607      39.732931     -28709.874     -28749.607      0             -28749.607     -30164.046     -67.245306      1481.6839     -28730.645     -31.530039     -28741.404    
    228000   228            77.27213      -8.2627384      0.034889986            0  -28750.33       39.303593     -28711.026     -28750.33       0             -28750.33      -30166.375     -67.273131      1483.3186     -28722.63      -30.385459     -28741.412    
    229000   229            75.777375     -13.468424      0.034889986            0  -28749.034      38.543303     -28710.49      -28749.034      0             -28749.034     -30164.116     -67.257795      1482.34       -28729.405     -30.907606     -28741.398    
    230000   230            78.937072     -5.5239743      0.034889986            0  -28749.089      40.150448     -28708.939     -28749.089      0             -28749.089     -30164.598     -67.264854      1482.7739     -28716.696     -32.456206     -28741.395    
    231000   231            76.950344      2.3439011      0.034889986            0  -28749.668      39.139921     -28710.529     -28749.668      0             -28749.668     -30165.269     -67.285906      1482.8869     -28707.237     -30.872167     -28741.401    
    232000   232            75.439491      22.616958      0.034889986            0  -28749.587      38.371443     -28711.215     -28749.587      0             -28749.587     -30165.195     -67.343166      1482.9514     -28679.454     -30.181912     -28741.397    
    233000   233            76.968591      8.9471052      0.034889986            0  -28748.9        39.149202     -28709.751     -28748.9        0             -28748.9       -30163.671     -67.322681      1482.0933     -28697.186     -31.648854     -28741.4      
    234000   234            76.277784      1.9169217      0.034889986            0  -28749.664      38.79783      -28710.866     -28749.664      0             -28749.664     -30165.158     -67.292513      1482.7866     -28708.174     -30.53417      -28741.401    
    235000   235            78.31358      -16.450099      0.034889986            0  -28749.423      39.833315     -28709.589     -28749.423      0             -28749.423     -30164.568     -67.254122      1482.3994     -28732.691     -31.813322     -28741.403    
    236000   236            75.503955     -3.1881638      0.034889986            0  -28749.705      38.404231     -28711.301     -28749.705      0             -28749.705     -30164.818     -67.27407       1482.3865     -28715.778     -30.10409      -28741.405    
    237000   237            77.272052      11.897541      0.034889986            0  -28748.788      39.303554     -28709.485     -28748.788      0             -28748.788     -30164.506     -67.329127      1483.0463     -28692.777     -31.909024     -28741.394    
    238000   238            75.530048     -5.4708215      0.034889986            0  -28749.117      38.417503     -28710.699     -28749.117      0             -28749.117     -30164.227     -67.272599      1482.3832     -28718.382     -30.698811     -28741.398    
    239000   239            76.068431      6.0893269      0.034889986            0  -28749.404      38.691345     -28710.712     -28749.404      0             -28749.404     -30165.302     -67.297718      1483.1963     -28702.161     -30.690284     -28741.403    
    240000   240            76.849168      11.703544      0.034889986            0  -28749.287      39.088459     -28710.198     -28749.287      0             -28749.287     -30164.462     -67.317594      1482.4928     -28693.762     -31.199622     -28741.398    
    241000   241            77.986519     -4.493593       0.034889986            0  -28749.055      39.666959     -28709.388     -28749.055      0             -28749.055     -30164.185     -67.291258      1482.4219     -28715.698     -32.010944     -28741.399    
    242000   242            76.174344      3.5303975      0.034889986            0  -28749.309      38.745217     -28710.563     -28749.309      0             -28749.309     -30165.297     -67.308181      1483.2963     -28705.606     -30.835858     -28741.399    
    243000   243            77.462948      3.8947645      0.034889986            0  -28749.995      39.400651     -28710.594     -28749.995      0             -28749.995     -30164.852     -67.309883      1482.1672     -28705.125     -30.815691     -28741.41     
    244000   244            77.140158     -20.984092      0.034889986            0  -28748.969      39.236468     -28709.732     -28748.969      0             -28748.969     -30163.85      -67.24737       1482.1289     -28739.201     -31.665435     -28741.398    
    245000   245            77.632758      7.3784557      0.034889986            0  -28749.439      39.487023     -28709.952     -28749.439      0             -28749.439     -30165.455     -67.300277      1483.3169     -28699.59      -31.455062     -28741.407    
    246000   246            77.093779      14.949033      0.034889986            0  -28748.886      39.212877     -28709.673     -28748.886      0             -28748.886     -30164.913     -67.319178      1483.3462     -28688.68      -31.711357     -28741.384    
    247000   247            76.537133      8.2030479      0.034889986            0  -28748.16       38.929746     -28709.23      -28748.16       0             -28748.16      -30162.802     -67.31596       1481.9583     -28697.71      -32.16334      -28741.394    
    248000   248            76.652129     -9.3210469      0.034889986            0  -28749.443      38.988237     -28710.455     -28749.443      0             -28749.443     -30164.982     -67.271469      1482.8102     -28723.545     -30.94688      -28741.402    
    249000   249            76.849549     -13.746016      0.034889986            0  -28749.386      39.088653     -28710.297     -28749.386      0             -28749.386     -30164.587     -67.268397      1482.4699     -28729.601     -31.10604      -28741.403    
    250000   250            78.104162      3.1227516      0.034889986            0  -28749.139      39.726797     -28709.413     -28749.139      0             -28749.139     -30164.981     -67.290564      1483.1318     -28705.027     -31.989287     -28741.402    
Loop time of 946.693 on 4 procs for 250000 steps with 3936 atoms

Performance: 22.816 ns/day, 1.052 hours/ns, 264.077 timesteps/s, 1.039 Matom-step/s
99.4% CPU use with 4 MPI tasks x 1 OpenMP threads

MPI task timing breakdown:
Section |  min time  |  avg time  |  max time  |%varavg| %total
---------------------------------------------------------------
Pair    | 886.86     | 904.64     | 924.04     |  45.7 | 95.56
Neigh   | 8.9365     | 9.1245     | 9.3419     |   4.8 |  0.96
Comm    | 6.8403     | 26.47      | 44.455     | 269.6 |  2.80
Output  | 3.0687     | 3.0688     | 3.0689     |   0.0 |  0.32
Modify  | 2.5457     | 2.7321     | 2.9142     |   8.3 |  0.29
Other   |            | 0.6544     |            |       |  0.07

Nlocal:            984 ave         984 max         984 min
Histogram: 4 0 0 0 0 0 0 0 0 0
Nghost:            466 ave         466 max         466 min
Histogram: 4 0 0 0 0 0 0 0 0 0
Neighs:              0 ave           0 max           0 min
Histogram: 4 0 0 0 0 0 0 0 0 0
FullNghs:       126319 ave      126333 max      126302 min
Histogram: 1 0 0 0 0 1 1 0 0 1

Total # of neighbors = 505276
Ave neighs/atom = 128.37297
Neighbor list builds = 7050
Dangerous builds = 0

unfix               my_nvt
undump              nvt_eq_dump
reset_timestep      0
write_data          ${file}_${purpose}_${run}.lmpdat
write_data          graphene_${purpose}_${run}.lmpdat
write_data          graphene_nvt_eql_${run}.lmpdat
write_data          graphene_nvt_eql_1.lmpdat
System init for write_data ...
Last active /omp style is pair_style airebo/omp
# Print message when the process is finished
print "Finished nvt equilibration run."
Finished nvt equilibration run.


# NPT
variable            purpose_2 string npt_eql

fix                  my_npt all npt temp ${temp_f} ${temp_f} $(100*dt) iso ${press_i} ${press_f} $(1000*dt)
fix                  my_npt all npt temp 77 ${temp_f} $(100*dt) iso ${press_i} ${press_f} $(1000*dt)
fix                  my_npt all npt temp 77 77 $(100*dt) iso ${press_i} ${press_f} $(1000*dt)
fix                  my_npt all npt temp 77 77 0.10000000000000000555 iso ${press_i} ${press_f} $(1000*dt)
fix                  my_npt all npt temp 77 77 0.10000000000000000555 iso 10 ${press_f} $(1000*dt)
fix                  my_npt all npt temp 77 77 0.10000000000000000555 iso 10 10 $(1000*dt)
fix                  my_npt all npt temp 77 77 0.10000000000000000555 iso 10 10 1
compute              2 all pe/atom
restart              ${data_write_frq}  ${file}_${purpose_2}_${run}_a.rst ${file}_${purpose_2}_${run}_b.rst
restart              1000  ${file}_${purpose_2}_${run}_a.rst ${file}_${purpose_2}_${run}_b.rst
restart              1000  graphene_${purpose_2}_${run}_a.rst ${file}_${purpose_2}_${run}_b.rst
restart              1000  graphene_npt_eql_${run}_a.rst ${file}_${purpose_2}_${run}_b.rst
restart              1000  graphene_npt_eql_1_a.rst ${file}_${purpose_2}_${run}_b.rst
restart              1000  graphene_npt_eql_1_a.rst graphene_${purpose_2}_${run}_b.rst
restart              1000  graphene_npt_eql_1_a.rst graphene_npt_eql_${run}_b.rst
restart              1000  graphene_npt_eql_1_a.rst graphene_npt_eql_1_b.rst
dump                 npt_eq_dump all custom ${data_write_frq} ${file}_${purpose_2}_${run}.lammpstrj id type x y z xu yu zu vx vy vz fx fy fz c_2 ix iy iz
dump                 npt_eq_dump all custom 1000 ${file}_${purpose_2}_${run}.lammpstrj id type x y z xu yu zu vx vy vz fx fy fz c_2 ix iy iz
dump                 npt_eq_dump all custom 1000 graphene_${purpose_2}_${run}.lammpstrj id type x y z xu yu zu vx vy vz fx fy fz c_2 ix iy iz
dump                 npt_eq_dump all custom 1000 graphene_npt_eql_${run}.lammpstrj id type x y z xu yu zu vx vy vz fx fy fz c_2 ix iy iz
dump                 npt_eq_dump all custom 1000 graphene_npt_eql_1.lammpstrj id type x y z xu yu zu vx vy vz fx fy fz c_2 ix iy iz
dump_modify	         npt_eq_dump sort id

run                  250000 # 250 ps
Last active /omp style is pair_style airebo/omp
Per MPI rank memory allocation (min/avg/max) = 4.46 | 4.46 | 4.46 Mbytes
   Step          Time           Temp          Press         Density       Ndanger       PotEng         KinEng         TotEng         E_vdwl         E_coul         E_pair         v_REBO          v_LJ        v_TORSION       Enthalpy       Ecouple       Econserve   
         0   0              78.104162      3.1227516      0.034889986            0  -28749.139      39.726797     -28709.413     -28749.139      0             -28749.139     -30164.981     -67.290564      1483.1318     -28705.027      0             -28709.413    
      1000   1              76.709952      1.6976949      0.03519894             0  -28748.939      39.017648     -28709.921     -28748.939      0             -28748.939     -30163.775     -67.304958      1482.141      -28707.558      0.5050759     -28709.416    
      2000   2              76.172452      23.433696      0.03609714             0  -28749.412      38.744255     -28710.668     -28749.412      0             -28749.412     -30164.318     -67.356324      1482.2621     -28678.86       1.2500587     -28709.418    
      3000   3              77.341982      26.07265       0.037517004            0  -28749.105      39.339123     -28709.765     -28749.105      0             -28749.105     -30163.508     -67.369041      1481.7727     -28675.714      0.39050098    -28709.375    
      4000   4              76.952648     -2.0636741      0.039486476            0  -28750.793      39.141092     -28711.652     -28750.793      0             -28750.793     -30166.838     -67.290018      1483.3349     -28714.213      2.3033736     -28709.348    
      5000   5              76.147378      1.1355694      0.042065397            0  -28750.992      38.731501     -28712.26      -28750.992      0             -28750.992     -30166.458     -67.29247       1482.7585     -28710.938      2.959082      -28709.301    
      6000   6              77.581929      3.3767883      0.04527766             0  -28752.354      39.461169     -28712.893     -28752.354      0             -28752.354     -30170.27      -67.290455      1485.2062     -28709.239      3.6412652     -28709.252    
      7000   7              79.597247     -1.6639725      0.049145106            0  -28752.012      40.486238     -28711.526     -28752.012      0             -28752.012     -30167.887     -67.284209      1483.1591     -28713.185      2.3555615     -28709.17     
      8000   8              76.960032     -4.6389068      0.053718239            0  -28753.286      39.144848     -28714.141     -28753.286      0             -28753.286     -30169.647     -67.289047      1483.6505     -28718.372      5.0345722     -28709.106    
      9000   9              77.060845      21.867618      0.059018295            0  -28752.179      39.196126     -28712.983     -28752.179      0             -28752.179     -30168.199     -67.326262      1483.3467     -28694.828      3.9843071     -28708.998    
     10000   10             77.925128      1.149453       0.065012547            0  -28753.036      39.635733     -28713.401     -28753.036      0             -28753.036     -30169.724     -67.283123      1483.9704     -28712.534      4.4892446     -28708.911    
     11000   11             77.234662      3.4127391      0.071808425            0  -28753.245      39.284536     -28713.961     -28753.245      0             -28753.245     -30170.29      -67.292235      1484.3374     -28711.632      5.1576686     -28708.803    
     12000   12             76.150879      33.644514      0.079374503            0  -28754.1        38.733282     -28715.367     -28754.1        0             -28754.1       -30171.825     -67.313371      1485.0388     -28694.598      6.6652949     -28708.701    
     13000   13             77.613546     -33.218607      0.087840342            0  -28753.589      39.477251     -28714.112     -28753.589      0             -28753.589     -30170.502     -67.258425      1484.1711     -28732.641      5.5308842     -28708.581    
     14000   14             77.837587      22.555768      0.09720027             0  -28754.068      39.591207     -28714.477     -28754.068      0             -28754.068     -30170.941     -67.321639      1484.1945     -28703.107      6.0023875     -28708.475    
     15000   15             76.430861      5.0000196      0.10762008             0  -28755.224      38.875692     -28716.349     -28755.224      0             -28755.224     -30172.416     -67.935812      1485.1279     -28714.072      7.9998632     -28708.349    
     16000   16             94.560486      0.239989       0.11832384             2  -28774.671      48.09712      -28726.574     -28774.671      0             -28774.671     -30190.831     -69.992434      1486.1526     -28726.475      16.970773     -28709.603    
[...]
    182000   182            76.241007      104.61979      0.12143017             2  -28833.108      38.779124     -28794.329     -28833.108      0             -28833.108     -30246.538     -71.371053      1484.8013     -28752.114      85.6631       -28708.665    
    183000   183            76.271791     -43.089811      0.12140736             2  -28833.924      38.794782     -28795.129     -28833.924      0             -28833.924     -30249.851     -70.958519      1486.8854     -28812.52       86.446955     -28708.682    
    184000   184            77.982763     -4.2333157      0.12123268             2  -28834.095      39.665049     -28794.43      -28834.095      0             -28834.095     -30248.87      -71.200755      1485.9749     -28796.141      85.753245     -28708.677    
    185000   185            77.914447     -4.1545267      0.12147635             2  -28832.984      39.630301     -28793.354     -28832.984      0             -28832.984     -30246.758     -71.131416      1484.9055     -28795.03       84.687757     -28708.666    
    186000   186            77.552225     -4.1839641      0.1212136              2  -28834.435      39.446061     -28794.989     -28834.435      0             -28834.435     -30250.254     -70.98046       1486.7996     -28796.68       86.304149     -28708.685    
    187000   187            79.159072      61.074486      0.1213738              2  -28833.89       40.263365     -28793.627     -28833.89       0             -28833.89      -30248.125     -71.283543      1485.5185     -28768.972      84.92318      -28708.704    
    188000   188            76.851534     -43.920487      0.12123916             2  -28832.832      39.089662     -28793.743     -28832.832      0             -28832.832     -30246.182     -71.18096       1484.5307     -28811.493      85.044312     -28708.698    
    189000   189            75.438019     -26.718798      0.12118904             2  -28833.19       38.370694     -28794.819     -28833.19       0             -28833.19      -30248.989     -71.006395      1486.8051     -28805.622      86.102342     -28708.717    
    190000   190            77.271883     -24.454875      0.12129847             2  -28833.437      39.303468     -28794.133     -28833.437      0             -28833.437     -30248.147     -71.119619      1485.8299     -28804.012      85.432714     -28708.701    
    191000   191            76.184547      47.032878      0.12129662             2  -28833.585      38.750407     -28794.834     -28833.585      0             -28833.585     -30248.113     -71.118072      1485.6464     -28775.836      86.147735     -28708.687    
    192000   192            78.277448     -4.4400208      0.12155867             2  -28833.242      39.814937     -28793.427     -28833.242      0             -28833.242     -30247.631     -71.071249      1485.4611     -28795.216      84.74629      -28708.68     
    193000   193            77.951808      46.669697      0.12139016             2  -28835.143      39.649304     -28795.494     -28835.143      0             -28835.143     -30250.766     -70.997985      1486.6208     -28776.656      86.789759     -28708.704    
    194000   194            76.523         69.138102      0.12144204             2  -28833.065      38.922557     -28794.143     -28833.065      0             -28833.065     -30248.345     -71.00154       1486.2817     -28766.248      85.452942     -28708.69     
    195000   195            76.867007      54.522856      0.12164036             2  -28834.225      39.097532     -28795.128     -28834.225      0             -28834.225     -30248.512     -71.227536      1485.5139     -28773.166      86.403908     -28708.724    
    196000   196            75.888143     -46.821274      0.12143868             2  -28833          38.599644     -28794.401     -28833          0             -28833         -30247.292     -70.95352       1485.2454     -28813.292      85.701911     -28708.699    
    197000   197            78.734386     -18.366221      0.12147437             2  -28832.952      40.047354     -28792.905     -28832.952      0             -28832.952     -30247.733     -71.175043      1485.9558     -28800.313      84.220129     -28708.685    
    198000   198            75.363819     -7.561809       0.12158013             2  -28833.823      38.332953     -28795.49      -28833.823      0             -28833.823     -30248.269     -71.163006      1485.609      -28798.537      86.798396     -28708.691    
    199000   199            77.089111      31.296678      0.12159485             2  -28833.674      39.210503     -28794.464     -28833.674      0             -28833.674     -30247.944     -71.071833      1485.342      -28781.852      85.79255      -28708.671    
    200000   200            76.936642      49.639842      0.12134629             2  -28834.566      39.132951     -28795.433     -28834.566      0             -28834.566     -30250.524     -70.950694      1486.9087     -28775.389      86.759515     -28708.673    
    201000   201            78.816676      59.473884      0.12152055             2  -28833.71       40.089209     -28793.621     -28833.71       0             -28833.71      -30248.211     -71.288644      1485.7899     -28769.641      84.972631     -28708.648    
    202000   202            77.847812      26.875731      0.12120156             2  -28834.414      39.596407     -28794.817     -28834.414      0             -28834.414     -30248.748     -71.159045      1485.4935     -28783.952      86.167825     -28708.649    
    203000   203            77.977042     -36.25041       0.12110242             2  -28832.763      39.662139     -28793.101     -28832.763      0             -28832.763     -30248.822     -70.996018      1487.0554     -28807.767      84.492715     -28708.608    
    204000   204            76.771084     -84.754538      0.12107126             2  -28833.12       39.048742     -28794.071     -28833.12       0             -28833.12      -30247.64      -71.044485      1485.5647     -28828.371      85.464545     -28708.606    
    205000   205            74.938735      105.56532      0.12130255             2  -28833.823      38.116739     -28795.706     -28833.823      0             -28833.823     -30248.48      -71.146481      1485.8031     -28753.066      87.101998     -28708.604    
    206000   206            77.846075      37.204452      0.12130721             2  -28833.541      39.595524     -28793.945     -28833.541      0             -28833.541     -30248.843     -71.000691      1486.3033     -28778.918      85.367045     -28708.578    
    207000   207            74.696603      9.3569658      0.12138158             2  -28833.347      37.993581     -28795.354     -28833.347      0             -28833.347     -30247.675     -71.203985      1485.5317     -28791.577      86.782045     -28708.572    
    208000   208            77.38868       19.596874      0.12143158             2  -28833.91       39.362875     -28794.548     -28833.91       0             -28833.91      -30249.076     -71.087805      1486.2538     -28786.64       85.989907     -28708.558    
    209000   209            79.006337     -39.362277      0.12138807             2  -28832.63       40.185678     -28792.444     -28832.63       0             -28832.63      -30247.058     -71.11998       1485.5479     -28808.332      83.927771     -28708.516    
    210000   210            75.744435     -35.408327      0.12152272             2  -28833.514      38.526549     -28794.987     -28833.514      0             -28833.514     -30247.769     -71.168375      1485.423      -28809.264      86.4638       -28708.524    
    211000   211            77.444657      65.407975      0.12145909             2  -28832.944      39.391347     -28793.553     -28832.944      0             -28832.944     -30248.026     -70.973615      1486.0551     -28767.167      85.034498     -28708.518    
    212000   212            76.295791      28.946736      0.12162652             2  -28833.241      38.80699      -28794.434     -28833.241      0             -28833.241     -30248.415     -71.091981      1486.2656     -28782.773      85.904274     -28708.53     
    213000   213            76.826747     -53.386158      0.1215335              2  -28833.145      39.077054     -28794.068     -28833.145      0             -28833.145     -30248.08      -71.020473      1485.9552     -28815.591      85.539618     -28708.529    
    214000   214            76.775498     -13.15227       0.12140903             2  -28833.794      39.050987     -28794.743     -28833.794      0             -28833.794     -30250.012     -70.845584      1487.064      -28800.051      86.220972     -28708.522    
    215000   215            78.419091     -7.5881913      0.12145744             2  -28833.639      39.886982     -28793.752     -28833.639      0             -28833.639     -30249.586     -70.987636      1486.9356     -28796.813      85.251002     -28708.501    
    216000   216            78.755032      56.860331      0.12150916             3  -28838.372      40.057855     -28798.314     -28838.372      0             -28838.372     -30253.196     -71.161767      1485.9859     -28775.386      90.231089     -28708.083    
    217000   217            77.226416     -69.885084      0.12127878             3  -28838.86       39.280342     -28799.58      -28838.86       0             -28838.86      -30254.254     -71.098161      1486.4919     -28827.814      91.49758      -28708.082    
    218000   218            76.639555     -8.7286843      0.12122675             3  -28838.303      38.981841     -28799.321     -28838.303      0             -28838.303     -30254.306     -71.023046      1487.026      -28802.849      91.282239     -28708.039    
    219000   219            76.151208      116.11338      0.1213966              3  -28838.848      38.733449     -28800.115     -28838.848      0             -28838.848     -30253.706     -71.256443      1486.1139     -28753.25       92.069363     -28708.046    
    220000   220            76.813629     -41.154223      0.1212592              3  -28837.862      39.070382     -28798.791     -28837.862      0             -28837.862     -30253.282     -71.143376      1486.564      -28815.421      90.772432     -28708.019    
    221000   221            76.543272      14.35172       0.12126642             3  -28838.472      38.932868     -28799.539     -28838.472      0             -28838.472     -30254.264     -70.954007      1486.7464     -28793.74       91.525376     -28708.014    
    222000   222            76.191754      8.7733251      0.1212763              3  -28838.39       38.754072     -28799.636     -28838.39       0             -28838.39      -30253.204     -71.135751      1485.9495     -28796.092      91.635651     -28708.001    
    223000   223            77.362905      53.512513      0.1214428              3  -28837.504      39.349765     -28798.154     -28837.504      0             -28837.504     -30252.987     -71.167726      1486.6508     -28776.564      90.193187     -28707.961    
    224000   224            78.596459     -31.605156      0.12125932             3  -28838.421      39.977199     -28798.444     -28838.421      0             -28838.421     -30253.912     -70.95311       1486.444      -28811.215      90.484296     -28707.96     
    225000   225            75.869305      85.020156      0.12145153             3  -28838.239      38.590062     -28799.649     -28838.239      0             -28838.239     -30253.09      -71.075876      1485.9268     -28765.349      91.686273     -28707.963    
    226000   226            75.943202      20.40265       0.12141402             3  -28837.941      38.627649     -28799.313     -28837.941      0             -28837.941     -30252.656     -71.033278      1485.7487     -28791.08       91.35155      -28707.962    
    227000   227            75.323909      53.059748      0.12154917             3  -28838.275      38.312653     -28799.962     -28838.275      0             -28838.275     -30252.869     -71.177494      1485.7715     -28778.573      91.972583     -28707.989    
    228000   228            77.326356      17.851668      0.12149175             3  -28838.65       39.331175     -28799.319     -28838.65       0             -28838.65      -30253.001     -71.028648      1485.3799     -28792.119      91.307986     -28708.011    
    229000   229            75.641634      72.286499      0.1215294              3  -28837.574      38.47426      -28799.099     -28837.574      0             -28837.574     -30251.61      -71.059595      1485.0958     -28769.955      91.093476     -28708.006    
    230000   230            77.913012      53.701818      0.12146106             3  -28838.2        39.629571     -28798.571     -28838.2        0             -28838.2       -30252.77      -70.960522      1485.5299     -28776.907      90.557272     -28708.013    
    231000   231            76.861287     -10.970468      0.12138272             3  -28838.84       39.094623     -28799.746     -28838.84       0             -28838.84      -30253.14      -71.117636      1485.4174     -28804.174      91.733975     -28708.012    
    232000   232            78.100727      34.133838      0.12137617             3  -28838.318      39.72505      -28798.593     -28838.318      0             -28838.318     -30253.301     -71.102105      1486.0847     -28784.814      90.607204     -28707.986    
    233000   233            78.43484       25.87448       0.1214619              3  -28839.128      39.894993     -28799.233     -28839.128      0             -28839.128     -30254.29      -70.940374      1486.1017     -28788.796      91.263896     -28707.97     
    234000   234            79.383512      44.051459      0.12137805             3  -28838.167      40.377524     -28797.79      -28838.167      0             -28838.167     -30252.252     -71.014784      1485.0998     -28780.007      89.830292     -28707.959    
    235000   235            76.689405      28.715826      0.12130191             3  -28838.526      39.007197     -28799.519     -28838.526      0             -28838.526     -30252.875     -71.111784      1485.461      -28787.919      91.550498     -28707.968    
    236000   236            78.365176     -52.425763      0.1211462              3  -28838.075      39.859559     -28798.216     -28838.075      0             -28838.075     -30253.014     -71.021752      1485.9607     -28819.419      90.281824     -28707.934    
    237000   237            75.527751     -63.173102      0.12125333             3  -28837.955      38.416335     -28799.539     -28837.955      0             -28837.955     -30253.061     -71.002431      1486.1084     -28825.067      91.631151     -28707.908    
    238000   238            77.07932      -13.46163       0.12152954             3  -28838.033      39.205523     -28798.828     -28838.033      0             -28838.033     -30252.2       -71.152676      1485.3193     -28804.255      90.926892     -28707.901    
    239000   239            76.7577       -3.6676458      0.12135954             3  -28837.976      39.041935     -28798.934     -28837.976      0             -28837.976     -30252.864     -71.225277      1486.113      -28800.415      91.04807      -28707.886    
    240000   240            76.449482      37.173674      0.12140043             3  -28838.309      38.885163     -28799.424     -28838.309      0             -28838.309     -30252.293     -71.086407      1485.0706     -28784.421      91.541455     -28707.882    
    241000   241            77.329676     -44.997378      0.12144292             3  -28838.135      39.332864     -28798.803     -28838.135      0             -28838.135     -30253.099     -70.917933      1485.8811     -28816.957      90.915013     -28707.888    
    242000   242            75.500739      142.6698       0.12155532             3  -28837.498      38.402595     -28799.096     -28837.498      0             -28837.498     -30251.364     -71.186011      1485.0512     -28741.587      91.187829     -28707.908    
    243000   243            75.922627     -15.784573      0.12127647             3  -28838.475      38.617184     -28799.858     -28838.475      0             -28838.475     -30253.521     -71.110221      1486.1561     -28806.235      91.943477     -28707.914    
    244000   244            77.716513     -30.316138      0.1213328              3  -28838.383      39.529624     -28798.854     -28838.383      0             -28838.383     -30252.612     -71.07926       1485.3083     -28811.096      90.925919     -28707.928    
    245000   245            74.711066     -10.610409      0.12142788             3  -28839.517      38.000937     -28801.516     -28839.517      0             -28839.517     -30254.483     -70.989818      1485.9558     -28805.798      93.567996     -28707.948    
    246000   246            76.87781      -66.478562      0.1215874              3  -28838.045      39.103027     -28798.942     -28838.045      0             -28838.045     -30253.002     -70.95042       1485.9075     -28825.731      90.994924     -28707.947    
    247000   247            76.405615      27.105062      0.12153893             3  -28838.402      38.862851     -28799.539     -28838.402      0             -28838.402     -30253.95      -71.101717      1486.6503     -28788.612      91.56729      -28707.971    
    248000   248            75.451241     -1.669437       0.1214688              3  -28838.951      38.377419     -28800.573     -28838.951      0             -28838.951     -30254.264     -70.98221       1486.2958     -28801.247      92.576031     -28707.997    
    249000   249            77.436159      2.8881413      0.12128443             3  -28838.159      39.387025     -28798.772     -28838.159      0             -28838.159     -30253.773     -71.048422      1486.6623     -28797.605      90.77333      -28707.998    
    250000   250            75.257033      3.2445951      0.12124698             3  -28838.64       38.278637     -28800.361     -28838.64       0             -28838.64      -30253.682     -71.065017      1486.1068     -28799.05       92.330898     -28708.03     
Loop time of 1024.03 on 4 procs for 250000 steps with 3936 atoms

Performance: 21.093 ns/day, 1.138 hours/ns, 244.132 timesteps/s, 960.905 katom-step/s
99.3% CPU use with 4 MPI tasks x 1 OpenMP threads

MPI task timing breakdown:
Section |  min time  |  avg time  |  max time  |%varavg| %total
---------------------------------------------------------------
Pair    | 933.62     | 962.49     | 988.55     |  72.7 | 93.99
Neigh   | 13.482     | 13.852     | 14.235     |   7.8 |  1.35
Comm    | 11.478     | 37.93      | 67.199     | 371.4 |  3.70
Output  | 3.0261     | 3.0262     | 3.0263     |   0.0 |  0.30
Modify  | 5.898      | 6.0042     | 6.093      |   3.2 |  0.59
Other   |            | 0.7326     |            |       |  0.07

Nlocal:            984 ave         984 max         984 min
Histogram: 4 0 0 0 0 0 0 0 0 0
Nghost:        1035.25 ave        1040 max        1030 min
Histogram: 1 0 0 1 0 0 0 0 1 1
Neighs:              0 ave           0 max           0 min
Histogram: 4 0 0 0 0 0 0 0 0 0
FullNghs:       139068 ave      139160 max      138958 min
Histogram: 1 0 0 0 0 1 1 0 0 1

Total # of neighbors = 556274
Ave neighs/atom = 141.32978
Neighbor list builds = 7722
Dangerous builds = 3

unfix                my_npt
undump               npt_eq_dump
write_data           ${file}_${purpose_2}_${run}.lmpdat
write_data           graphene_${purpose_2}_${run}.lmpdat
write_data           graphene_npt_eql_${run}.lmpdat
write_data           graphene_npt_eql_1.lmpdat
System init for write_data ...
Last active /omp style is pair_style airebo/omp

# Print message when the entire process is finished
print "Finished npt equilibration run."
Finished npt equilibration run.
Total wall time: 0:32:50
