LAMMPS data file -- atom_style atomic

9994 atoms
2 atom types

-1.0081776551436192 98.02207365514272 xlo xhi
0.823874844856384 99.85412615514272 ylo yhi
-33.01008377009737 33.01008377009737 zlo zhi


Masses

1 12.011 # C
2 1.008 # H

Atoms # atomic

1 1 1.1025461416465199 1.2324394105107426 -0.08269340565099986 # C
2 1 0.00838179974792075 1.949137119496643 -0.5338414290271347 # C
3 1 0.013864512015332016 3.3108433737242313 -0.30467599170484067 # C
4 1 0.9843671538861588 3.903291514402701 0.5306400394027195 # C
5 1 3.234405266142246 1.1447168286198524 1.263185790726446 # C
6 1 2.1474431914494936 1.7805933945968986 0.6489324712304169 # C
7 1 2.155160790435209 3.178460901605823 0.7569405223587468 # C
8 1 3.302743213055456 3.847522997820838 1.1865965758120824 # C
9 1 5.722722594215148 1.1739585732013522 1.827521419118014 # C
10 1 4.482376083919043 1.7309341163365701 1.5141702207812535 # C
11 1 4.478004733907747 3.1399807452072945 1.528303021427931 # C
12 1 5.636928237292308 3.822397257133027 1.8581440686617308 # C
13 1 7.951792297110142 1.2466544517741565 2.9532395635844044 # C
14 1 6.823213617132288 1.804454435057918 2.3751836037516942 # C
15 1 6.8306863202297485 3.187932615845075 2.2345118630157197 # C
16 1 8.01945555244067 3.9004648409317646 2.392004070823795 # C
17 1 10.334932328084323 1.2785804924958573 3.7095528266374993 # C
18 1 9.173572968344468 1.889495267776082 3.1984369506726518 # C
19 1 9.190576627817142 3.234848536999099 2.8053010050500133 # C
20 1 10.401418680235714 3.948931633869909 2.7957949401193725 # C
21 1 12.771119840137201 1.2130756275669383 3.225038731602859 # C
22 1 11.551334765868638 1.9017621179071467 3.389529931801939 # C
23 1 11.590847672709497 3.275657043064512 3.044974742726447 # C
24 1 12.831384048857803 3.943914449134008 2.865205487089576 # C
25 1 15.247630383873876 1.1993907507262862 3.2429209026330885 # C
26 1 14.020228680876022 1.825244077055304 3.098674909701452 # C
27 1 14.047068083215397 3.228542550285443 2.8699200973114296 # C
28 1 15.28445356144533 3.8407323434930234 2.6425038820953346 # C
29 1 17.630104852959576 1.104228505289456 2.3989819514363697 # C
30 1 16.45762168423557 1.7129376018321378 2.75994409782333 # C
31 1 16.485815372116242 3.116032542008452 2.5920371011649417 # C
32 1 17.673843336587506 3.8153201304354947 2.366816535439611 # C
33 1 20.105654326152568 1.0685795763063994 2.0046609622712954 # C
34 1 18.868043111101684 1.6976140676353777 2.170209568482023 # C
35 1 18.882798407749924 3.1013023290456694 2.235439434643261 # C
36 1 20.125674337993992 3.778268974615111 2.2219201692972357 # C
37 1 22.582937458172733 1.0677509380306556 2.2895044598129544 # C
38 1 21.349756450558644 1.6901244431094669 2.183791019037153 # C
39 1 21.352554470138813 3.0858841464273703 2.246573718342981 # C
40 1 22.54379715146493 3.8074497062282058 2.238874671935044 # C
41 1 25.046293189613007 1.1197273446922653 2.058547729041486 # C
42 1 23.8030278633173 1.7023890790591836 2.198663178119645 # C
43 1 23.76666581897397 3.1029795071953923 2.2766532641574817 # C
44 1 24.980891975004816 3.7871758742073753 2.3054840927357327 # C
45 1 27.512274336345914 1.1652161861146666 2.6637347967220903 # C
46 1 26.246518861667816 1.7329429699193293 2.4166526564228903 # C
47 1 26.216545591379578 3.145206173732325 2.4354597761431047 # C
48 1 27.387791484335686 3.874084031222786 2.7281762579203335 # C
49 1 29.78006649994784 1.3109216579517053 3.8021428956899825 # C
50 1 28.639282505443084 1.857680525321365 3.1927542463490552 # C
51 1 28.61928575388203 3.236556338341774 3.035314536231469 # C
52 1 29.833689751802392 3.940654614584819 3.0699082305391774 # C
53 1 32.232163688394614 1.2971662701604478 4.066090432584084 # C
54 1 31.030790948146766 1.9437002966558055 3.749752168671912 # C
55 1 31.023557511632294 3.2962355726853843 3.42594570198677 # C
56 1 32.228185322056376 4.0226036573386414 3.311407036128543 # C
57 1 34.639390322725866 1.272608712857358 3.2804921506564724 # C
58 1 33.406825079750135 1.917295538837865 3.617044846883268 # C
59 1 33.42996582420617 3.338494415407701 3.490116301301918 # C
60 1 34.63741837924722 3.995573438245275 3.2834380392242513 # C
61 1 37.17012701456411 1.3124584172547642 3.171803392558069 # C
62 1 35.89923841856552 1.9172590248783303 3.2153933933206607 # C
63 1 35.875591371732945 3.325008076422863 3.264233659109771 # C
64 1 37.090748796453916 4.04859349895361 3.334247859381478 # C
65 1 39.6176316005681 1.3837693292240159 3.819739426633305 # C
66 1 38.36386571295736 1.959560051212285 3.5124373969528127 # C
67 1 38.302491581224444 3.37065284486352 3.481110907713963 # C
68 1 39.48359005141247 4.083658836434163 3.5825643378035403 # C
69 1 41.84470876815006 1.5167633407439112 4.864829712977283 # C
70 1 40.71303060279436 2.1069199931279274 4.313279986829331 # C
71 1 40.67249415897696 3.485618501996831 4.011286284001608 # C
72 1 41.86103639821821 4.244211673121064 4.063755295416883 # C
73 1 44.025103242336115 2.0719140582936686 5.9718062617460115 # C
74 1 42.931637067619164 2.375210319252219 5.13943406328557 # C
75 1 43.01518317452901 3.6500328030836364 4.567923175353878 # C
76 1 44.2229180624069 4.359825913199386 4.565407831692824 # C
77 1 46.58302093965136 2.0282979404064303 6.060949611769525 # C
78 1 45.33859578952313 2.610003444627811 5.778105735041729 # C
79 1 45.41469297437531 3.8052193644404793 5.044667240911808 # C
80 1 46.635348337291745 4.444966342030321 4.788249842650901 # C
81 1 49.09356173118419 2.1819700455740887 6.383572007958167 # C
82 1 47.84227574061524 2.6235484165081466 5.891427483055 # C
83 1 47.84840033153663 3.8086593315361177 5.153268932606701 # C
84 1 49.10016829088898 4.41946023483901 4.860388894978932 # C
85 1 51.54714911936005 1.8518806139627064 5.752288351883153 # C
86 1 50.30379766118036 2.5335372516405137 5.802647713957139 # C
87 1 50.30600069081191 3.7429199335647274 5.080547330747997 # C
88 1 51.509391005209736 4.328547409218627 4.627737870140655 # C
89 1 53.80231115977812 1.509894577540246 4.615111412723622 # C
90 1 52.6870756032934 2.235513246314132 5.055520895502562 # C
91 1 52.71532872277491 3.618003615500928 4.67504307574722 # C
92 1 53.93392125404748 4.198338620287446 4.314082227143458 # C
93 1 56.310467644259234 1.3531821903552224 4.475821404197463 # C
94 1 55.07381317447162 2.041692846470264 4.4559222234055875 # C
95 1 55.14478551413643 3.4486043608232375 4.284541502068088 # C
96 1 56.33734669423873 4.096091940050786 3.9987242320624654 # C
97 1 58.791943915423985 1.3514234504378893 4.251689481560529 # C
98 1 57.54194222901875 1.9642068643745343 4.195937619574217 # C
99 1 57.53243786165853 3.3502795982758466 3.9943410007994595 # C
100 1 58.764227363083315 3.9964495764615826 3.661697151359478 # C
101 1 61.17225483470097 1.2550107608427028 3.4729190677458206 # C
102 1 59.981670921034805 1.9040298078455047 3.7855989539015487 # C
103 1 59.9861719735946 3.3110373466723195 3.660889904367729 # C
104 1 61.204298034741065 3.9838376288764086 3.5592106744017333 # C
105 1 63.62076211707624 1.2461278586608133 3.827417980893884 # C
106 1 62.40444293670178 1.8763988680845378 3.564309119455921 # C
107 1 62.42529868744134 3.2681705119909625 3.585914379782566 # C
108 1 63.64079056034438 3.9573799738377486 3.5503390038649356 # C
109 1 66.14284209897977 1.2602940362389217 3.683455258182258 # C
110 1 64.88497791311696 1.8880270767552683 3.686944885053841 # C
111 1 64.86948967305888 3.282124643299432 3.5942828092184067 # C
112 1 66.08592865879866 3.9633927164619736 3.681876285494809 # C
113 1 68.53755384887941 1.3603464942733645 4.565566129778112 # C
114 1 67.32417819358156 1.9094117143574256 4.094303716002052 # C
115 1 67.28605897781425 3.314186250256254 4.003230148716228 # C
116 1 68.4847212853615 4.0575308954553675 4.121879532936582 # C
117 1 70.8998664474574 1.6245319598459864 5.458917749565026 # C
118 1 69.70484794008878 2.074634218682129 4.8230809818727005 # C
119 1 69.71665319260823 3.4244550844842196 4.457508545173676 # C
120 1 70.91920533470864 4.124169573482262 4.462923319739481 # C
121 1 73.43693611850202 1.541556797237376 5.274731826367989 # C
122 1 72.1756582035757 2.1545159705860852 5.20427807496509 # C
123 1 72.15496313565336 3.5020088212450595 4.747373918859737 # C
124 1 73.37751829721309 4.11609665090801 4.462321707060029 # C
125 1 75.81043985981982 1.4068649807690454 4.258168238927581 # C
126 1 74.62970812319466 2.03738218820223 4.694158670829551 # C
127 1 74.59759217457567 3.4615594231789686 4.528789160301933 # C
128 1 75.78547935728565 4.143197545387648 4.353665322927123 # C
129 1 78.19903157079733 1.5555366319284898 5.054860885704658 # C
130 1 76.99736011749883 2.0793234061930144 4.593237966788841 # C
131 1 77.01196770569992 3.4882496008040476 4.426989486361017 # C
132 1 78.22214563805466 4.16305651724502 4.350575590669821 # C
133 1 80.71749821819263 1.5890263192051304 5.087168521478824 # C
134 1 79.45367204253435 2.1463954407371997 4.920555317436609 # C
135 1 79.46408862279604 3.533100126457111 4.563594828734914 # C
136 1 80.68652006637627 4.222184666780044 4.41507479635179 # C
137 1 83.16734383693583 1.5744035442600282 4.90854214089413 # C
138 1 81.93237154969108 2.184724478699752 4.831967872823804 # C
139 1 81.92352373260233 3.5629959266093305 4.5148662211085115 # C
140 1 83.12113304215579 4.236234951431221 4.336867808804778 # C
141 1 85.63165399853759 1.7705461589001203 5.408532073006236 # C
142 1 84.39067756921712 2.239299469048964 4.953960226036223 # C
143 1 84.36470179879612 3.5854258740520586 4.541399902217493 # C
144 1 85.57174699970042 4.2723118862354035 4.3919049074727985 # C
145 1 88.14938868490175 1.993580322094922 5.621189814323977 # C
146 1 86.86651305728822 2.4143243321999552 5.20491149988719 # C
147 1 86.81623973065044 3.6458251215995676 4.555938104671698 # C
148 1 88.01334813339295 4.268687268190249 4.149307884487927 # C
149 1 90.63935032720266 1.9788732235559787 5.25560373624886 # C
150 1 89.36717707810926 2.4864044083392924 5.123751632812699 # C
151 1 89.26086895818891 3.6704396377477346 4.382040666082759 # C
152 1 90.42022806550787 4.260591052910291 3.8239536947766917 # C
153 1 92.83847765337072 1.5381550696343385 4.239105324137584 # C
154 1 91.7286303623301 2.3452226066920376 4.471398338366692 # C
155 1 91.67272578927768 3.6008630225874954 3.8778368709317883 # C
156 1 92.79064443486938 4.105490390273791 3.2070172434080475 # C
157 1 95.3342221520437 1.5266366265849032 3.7251007546398194 # C
158 1 94.01924729225605 2.0882349333820245 3.721006358095566 # C
159 1 93.95654379532601 3.367512761485658 3.1297286128225688 # C
160 1 95.10296780995512 3.895096161624703 2.473232160956173 # C
161 1 97.49443229150559 0.9617877396893234 2.795336055830235 # C
162 1 96.43680256887389 1.8478684767837024 2.9234265907488184 # C
163 1 96.27136826786362 3.110916372421364 2.262027222128048 # C
164 1 97.2973562996838 3.74054031015023 1.5164049061483669 # C
165 1 0.8322574567821904 5.174861822557691 1.101238656430624 # C
166 1 -0.38192851527842636 5.800405301969318 1.4398072800839046 # C
167 1 -0.2731336339273252 7.114410772099276 1.8941497143427886 # C
168 1 0.8293062892416769 7.968449344128089 1.6816351547589583 # C
169 1 3.253837395509212 5.246081962580846 1.3631887189453737 # C
170 1 2.021151137597999 5.921790510040332 1.3122015774226272 # C
171 1 2.0427351467618466 7.298365090658333 1.458289244415781 # C
172 1 3.242934802237286 8.01842297444244 1.5052316799336225 # C
173 1 5.661871116332184 5.230184668729541 1.7454361069965647 # C
174 1 4.457197516360411 5.9441209762640925 1.5318579023202765 # C
175 1 4.448925051572681 7.33200340427353 1.5470454210259705 # C
176 1 5.65296272290297 8.035323612688005 1.7329405194400427 # C
177 1 8.047991068214337 5.269512249904101 2.1610471910675817 # C
178 1 6.860778583367971 5.939313970230813 1.8972541724714351 # C
179 1 6.858327851209722 7.342589504853586 1.8331201343702197 # C
180 1 8.054483806864262 8.05334038724937 1.915607663801787 # C
181 1 10.439929613231302 5.3276273506849545 2.5537028582794656 # C
182 1 9.230479125387102 5.973048892339046 2.2852172361669725 # C
183 1 9.241212826657247 7.366767363638878 2.1262018320638916 # C
184 1 10.454742382970034 8.043921248813923 2.031549315828002 # C
185 1 12.866383714466338 5.3079083455009926 2.5862437046577114 # C
186 1 11.652438263803854 6.021054201497731 2.511762976427072 # C
187 1 11.669099292791238 7.381446958869409 2.214967408720335 # C
188 1 12.888052978106755 8.040593560142671 2.12275366495588 # C
189 1 15.301495895195858 5.243989351137717 2.500054392305935 # C
190 1 14.09137593837651 5.962637003161255 2.4801552886701552 # C
191 1 14.074212235279136 7.3322418896771655 2.3054449069265885 # C
192 1 15.286283323738473 8.022825947956537 2.2504241548945467 # C
193 1 17.696485493722545 5.198908010535416 2.3131456962415773 # C
194 1 16.494422645720658 5.919460456929229 2.30958013745633 # C
195 1 16.511677148288676 7.313549592476277 2.214163441921124 # C
196 1 17.719419900561924 7.994580460621339 2.2083789422675166 # C
197 1 20.112488524783444 5.194513302713188 2.159762987739534 # C
198 1 18.909574151917273 5.893293182630189 2.201717304115029 # C
199 1 18.921325794443387 7.298996706773411 2.1605776067517657 # C
200 1 20.13385037959703 8.017728825937137 2.047821861964239 # C
201 1 22.566542066186898 5.192858669926335 2.19776459044369 # C
202 1 21.345373096325535 5.9055366413125805 2.1496065659566317 # C
203 1 21.347964747081196 7.293133586762287 2.077370217841108 # C
204 1 22.550678956536846 7.983242657896704 2.0030973698963677 # C
205 1 24.97107696097108 5.197304016790123 2.2566952494267274 # C
206 1 23.776427916746588 5.912198977194141 2.1653922544611826 # C
207 1 23.75947709296935 7.307341435676456 2.032735540710981 # C
208 1 24.969339894834206 7.989836565786845 1.9741746951231676 # C
209 1 27.37422107661605 5.271891639356373 2.606722909515036 # C
210 1 26.16808515582469 5.924152265577625 2.346865055155007 # C
211 1 26.202628996793685 7.32176950074281 2.1652826376265186 # C
212 1 27.413303852600194 8.003688626797802 2.143591885859821 # C
213 1 29.79341946435093 5.306327847068029 2.8235821180781504 # C
214 1 28.58503408846435 5.985514281937558 2.592761784032974 # C
215 1 28.63230735646524 7.373458596655187 2.3514942826875833 # C
216 1 29.83812820381282 8.065405887861234 2.393708692767149 # C
217 1 32.24082502180846 5.396417739501982 3.0719660180964974 # C
218 1 31.00423485746879 6.039800869160656 2.8221313993854773 # C
219 1 31.026438934261492 7.42016280915739 2.6807860897946947 # C
220 1 32.21045223247167 8.133188904707813 2.627899760479779 # C
221 1 34.67440169750335 5.396415218716617 3.1099958145974194 # C
222 1 33.45222889546495 6.098791600787596 3.010189065482742 # C
223 1 33.44896912681347 7.47186447938983 2.7426434449214487 # C
224 1 34.64883845035668 8.149085719344164 2.6231364462930253 # C
225 1 37.08242591640286 5.4392980825338055 3.1365476818744895 # C
226 1 35.87157958383578 6.106691534601728 3.021636786420864 # C
227 1 35.858924700890356 7.45504154086229 2.7184890815724154 # C
228 1 37.05580204188178 8.15774478145786 2.592529423457961 # C
229 1 39.48705718713332 5.484779017482943 3.3435257814661417 # C
230 1 38.29939328863922 6.143580965018741 3.0746437541816225 # C
231 1 38.29960833104502 7.507163994735053 2.730226949809421 # C
232 1 39.48202716215339 8.21428188191863 2.6753015583089885 # C
233 1 41.90259031727376 5.558086340233426 3.6148501455464777 # C
234 1 40.697224188888285 6.211885005300002 3.341131299216244 # C
235 1 40.67778934514951 7.577061490654585 2.987397287763473 # C
236 1 41.90474208289148 8.287067574537657 2.95570970179373 # C
237 1 44.28311263689385 5.638533533153745 3.949900832807878 # C
238 1 43.11922593609844 6.2612138798036145 3.5255874504054825 # C
239 1 43.1217114632211 7.626479555146581 3.183074002026034 # C
240 1 44.35286394665331 8.308740191083633 3.116051417948335 # C
241 1 46.69972703782424 5.684946434198926 4.163558048724973 # C
242 1 45.49014439302715 6.30866280347893 3.841362901335366 # C
243 1 45.54113001344873 7.641606721852488 3.3827461946227397 # C
244 1 46.75922154863511 8.278673140436831 3.2117563318466726 # C
245 1 49.11895391415669 5.674671463940076 4.218190498719424 # C
246 1 47.91706809505829 6.349629088699985 3.976424208434879 # C
247 1 47.94613801525374 7.641727009050733 3.472687297801081 # C
248 1 49.158125189041606 8.291279919178494 3.2564110096818557 # C
249 1 51.534960640275784 5.662780751288088 4.165692572082635 # C
250 1 50.33861247551398 6.316670744428446 3.968344093378591 # C
251 1 50.35754236809895 7.623730445956039 3.5299368556024593 # C
252 1 51.557536971092375 8.29652371603227 3.2907863836062465 # C
253 1 53.96094520210538 5.53890364883326 3.932517473551649 # C
254 1 52.76911183482093 6.294381708065766 3.905908270860558 # C
255 1 52.759594307520075 7.622622981004711 3.488505829329611 # C
256 1 53.99855862298086 8.241964789973917 3.2470538508882436 # C
257 1 56.38977768959895 5.4686552595108795 3.758570526999201 # C
258 1 55.18749051303757 6.175805886355878 3.7280855566053095 # C
259 1 55.20533600470174 7.547682726236059 3.3741520748518146 # C
260 1 56.418379266396016 8.187100418069983 3.0839645591914233 # C
261 1 58.7829075836063 5.39252879084169 3.5142829094553116 # C
262 1 57.588430582724314 6.12279761405808 3.539314302211993 # C
263 1 57.60271132065165 7.502686978353781 3.3259098413836417 # C
264 1 58.82200594380612 8.195048979942953 3.22778882654675 # C
265 1 61.231430954880025 5.360579609164917 3.4132831649702315 # C
266 1 59.9889850602238 6.066994818091188 3.358592157992875 # C
267 1 60.02126955195191 7.457947896459771 3.203621461395536 # C
268 1 61.24187971319077 8.140781246996331 2.992995203911392 # C
269 1 63.647580639604655 5.349922390533265 3.4321046089468945 # C
270 1 62.44911961036235 6.045304109395617 3.307023593637894 # C
271 1 62.44285395003384 7.410399676122825 3.053626650391629 # C
272 1 63.6593885609329 8.099196396941377 2.94014103619545 # C
273 1 66.07800985530432 5.344824330372136 3.461919313417283 # C
274 1 64.85548772725845 6.010343138729818 3.2835151656940282 # C
275 1 64.85973810745416 7.385614154067829 3.064184261102421 # C
276 1 66.08469986621722 8.073281827403186 2.909350889386254 # C
277 1 68.5081092215694 5.396007343207833 3.809190308395288 # C
278 1 67.29101221826583 6.042933735126568 3.509136255740409 # C
279 1 67.31822701151326 7.432990599176579 3.214075629782592 # C
280 1 68.50153109479002 8.148006580828334 3.215963431777127 # C
281 1 70.92143279849614 5.46822107300631 4.061459222231073 # C
282 1 69.70591237125281 6.134221258222367 3.8103332427348215 # C
283 1 69.69242729674198 7.513246530247715 3.5202408670687437 # C
284 1 70.89393378320484 8.184735425933702 3.3893044929394596 # C
285 1 73.35399548481058 5.49687735424873 4.164282832640929 # C
286 1 72.1311314464279 6.142775288981551 3.951248881084211 # C
287 1 72.11192696478192 7.50393779007889 3.6081662868556363 # C
288 1 73.32478892177582 8.183193676387143 3.4139924896205116 # C
289 1 75.77755010339467 5.5156352765437715 4.057950268333406 # C
290 1 74.56516712049083 6.1842137106262856 3.9563005690744006 # C
291 1 74.57254746570617 7.521837443274397 3.596192850223404 # C
292 1 75.76410144049937 8.2327764393504 3.4124120007775645 # C
293 1 78.22685660330541 5.5536965680322865 4.107564814657977 # C
294 1 76.99157788869543 6.218617658546333 3.948740223645629 # C
295 1 76.99061828136414 7.577738623078123 3.583592122033651 # C
296 1 78.18518783764252 8.266873405508637 3.480918922366521 # C
297 1 80.67725376102027 5.58098229075255 4.0658229953491745 # C
298 1 79.43510829870367 6.242252063423738 3.9401951536550617 # C
299 1 79.41281665978862 7.590275594123117 3.543871295371312 # C
300 1 80.61902329556224 8.263046968740323 3.307615790793357 # C
301 1 83.09971459093879 5.592447020695707 4.048308827486117 # C
302 1 81.8902167350146 6.270379092556765 3.902105318164274 # C
303 1 81.84703214857579 7.6124692607422135 3.524528700075878 # C
304 1 83.0456429907866 8.295192737973043 3.2929265417474 # C
305 1 85.5217855887997 5.589631308358028 3.9318852730290463 # C
306 1 84.29559511264895 6.255443650393049 3.8065634665885426 # C
307 1 84.26136248945839 7.5913208673016825 3.384827740187441 # C
308 1 85.46546283195053 8.204746018380895 3.0194492938486377 # C
309 1 87.9286671427356 5.527414851855321 3.5689711490006966 # C
310 1 86.71331859675348 6.2195289989139635 3.491119229258957 # C
311 1 86.67379692641369 7.520448552314049 3.0358590848110936 # C
312 1 87.83350711435185 8.135081175045785 2.5558972721561526 # C
313 1 90.3406379108766 5.506183945065885 3.2059257648782027 # C
314 1 89.11331430939934 6.15461725683809 3.1061105820950354 # C
315 1 89.05151766947613 7.4504276827354285 2.569912881231141 # C
316 1 90.24915181762194 8.090176165858667 2.176840886025495 # C
317 1 92.73202306153506 5.383260926692567 2.635133990739661 # C
318 1 91.50359116441841 6.074246838283618 2.6815823194720574 # C
319 1 91.45569924426658 7.359564651162515 2.139419210900528 # C
320 1 92.6133813116108 7.979818865488354 1.7269727310903993 # C
321 1 95.05452584724733 5.198950951915171 1.950759920050921 # C
322 1 93.86253189614216 5.953518757395076 2.0469753738522347 # C
323 1 93.78655169440583 7.247437203564077 1.551618391723068 # C
324 1 94.91148702851316 7.863035900768748 0.9783981893015794 # C
325 1 97.41793908495637 5.158757846110587 1.4439014425760348 # C
326 1 96.16790077031938 5.8162894636093485 1.3656603388881552 # C
327 1 96.04351544650262 7.043639613098337 0.7072102615133673 # C
328 1 97.00988954662428 7.5835205228226075 -0.13155863543295257 # C
329 1 0.7822561352159454 9.364840611359247 1.6585817315318048 # C
330 1 -0.40597485343558776 10.162365881371588 1.7252312027276202 # C
331 1 -0.3754180171829593 11.527616590734091 1.6960746756016933 # C
332 1 0.8052938151887375 12.244341114049252 1.5077411518325976 # C
333 1 3.216003266978219 9.40215546079607 1.4582638812549362 # C
334 1 1.991468089477223 10.098826807102373 1.5577394169080991 # C
335 1 1.9919589766431327 11.508628843996298 1.4502522749979863 # C
336 1 3.2049689131319288 12.166902154044376 1.2290469155815562 # C
337 1 5.638412171274942 9.437329414970934 1.638655488199426 # C
338 1 4.428393942812628 10.10157290056987 1.49896094750045 # C
339 1 4.4269762483512025 11.491630304073396 1.3342637846327041 # C
340 1 5.6343241989382795 12.197286661756674 1.2487120803913003 # C
341 1 8.04892386102115 9.439760245597315 1.7064434778199384 # C
342 1 6.817874048108284 10.107816233272482 1.6229889742587824 # C
343 1 6.830255153788597 11.491415303881075 1.4640604718726566 # C
344 1 8.046600459620741 12.150191282941998 1.320799432105517 # C
345 1 10.474099326414953 9.428307410655245 1.8349000283532824 # C
346 1 9.270706761827189 10.13789732495592 1.648051132963766 # C
347 1 9.262161518190258 11.519020309389523 1.4976149008859565 # C
348 1 10.48615790070194 12.162456512590268 1.386890218104753 # C
349 1 12.9026593893535 9.412761987906606 1.9281080660582723 # C
350 1 11.711297236363697 10.098646191736886 1.7715358152163887 # C
351 1 11.68976578466767 11.483466835639474 1.5543124279123226 # C
352 1 12.919429319295666 12.170408205458765 1.5888270493807048 # C
353 1 15.303511709297814 9.420594190914782 2.1817924221364757 # C
354 1 14.098190969864982 10.117747708006268 2.065757874541895 # C
355 1 14.107904331387171 11.494207326514152 1.882471810510602 # C
356 1 15.30364836981586 12.18458462052166 1.843015285060432 # C
357 1 17.717628250855597 9.404362682287841 2.0971235067390035 # C
358 1 16.515844023703067 10.098930161628779 2.084602971030549 # C
359 1 16.54049568569771 11.49350343088075 1.8999341381314143 # C
360 1 17.75168757419969 12.208341148598867 1.81748555205585 # C
361 1 20.123053806657996 9.396322747951144 1.927147342208372 # C
362 1 18.926776737292098 10.101071150957285 1.9378291120473532 # C
363 1 18.92590258618285 11.487903030829003 1.8047968917469253 # C
364 1 20.14115570350518 12.16513285930662 1.6159449379362842 # C
365 1 22.55445098607419 9.358398836470283 1.8752301777318725 # C
366 1 21.35886311900522 10.09357696428419 1.8433436462520238 # C
367 1 21.355363593139728 11.470070839928463 1.6948468592963202 # C
368 1 22.549993489187823 12.151574431379213 1.4762285854720931 # C
369 1 24.956593775914236 9.389994388620108 1.8502965612626956 # C
370 1 23.758778754003163 10.087864554279722 1.723718075013338 # C
371 1 23.754773657443305 11.452232341851047 1.588165398160406 # C
372 1 24.987559271034044 12.129288217188865 1.4167666444979972 # C
373 1 27.394320815693874 9.390165876844364 1.9211240286263163 # C
374 1 26.171839334527274 10.05583256449996 1.7704375749552748 # C
375 1 26.191041044644436 11.429418354809934 1.5505731473077662 # C
376 1 27.391844179703973 12.144733264966913 1.460721644405524 # C
377 1 29.802702314408226 9.448614775182751 2.2018059832580974 # C
378 1 28.601262419556072 10.110492159153129 1.9606125530427085 # C
379 1 28.59117625407665 11.488126912839256 1.721064563085406 # C
380 1 29.79895280779653 12.180385761162409 1.678548218570157 # C
381 1 32.21234734016582 9.529059804795077 2.4176401020588187 # C
382 1 30.987600763368434 10.170518134898602 2.175361751862128 # C
383 1 31.00727538519574 11.530288040458636 1.9153904211557067 # C
384 1 32.210797449662074 12.24952386631551 1.8477966030255146 # C
385 1 34.64047803024104 9.542145232159633 2.4537545015389677 # C
386 1 33.41786163391369 10.206772842632851 2.318582715136835 # C
387 1 33.43987998734806 11.570767508306465 2.070860092210509 # C
388 1 34.63031183991453 12.282295022642572 1.9017247180195793 # C
389 1 37.06127190015693 9.55856675491192 2.3292805435270987 # C
390 1 35.82464158617752 10.22672840121365 2.26613380374581 # C
391 1 35.83598346330525 11.617839661625524 2.0792789219607997 # C
392 1 37.0557040228122 12.304928652022655 1.9383188982615145 # C
393 1 39.47139205383573 9.566388892211101 2.38751867010312 # C
394 1 38.26197254413334 10.249121510405466 2.21501870325865 # C
395 1 38.267176256122134 11.643426050333971 2.0488475215743596 # C
396 1 39.48589183357859 12.29178408756436 1.8976139327027048 # C
397 1 41.91645244167151 9.606587965873317 2.498282719873842 # C
398 1 40.694411020974464 10.239211270957979 2.2407127808047496 # C
399 1 40.695550333678305 11.586534743248274 1.9651998260982642 # C
400 1 41.91141689276714 12.293447276517263 1.8902529505243855 # C
401 1 44.35343787765215 9.622471154634225 2.6753016542190773 # C
402 1 43.13053380881492 10.288130442328686 2.453408630205523 # C
403 1 43.14425851889472 11.647016355875824 2.100731488116439 # C
404 1 44.34984815161578 12.35065355468672 2.0996802495338116 # C
405 1 46.76152898971024 9.599847535986088 2.7663830513178187 # C
406 1 45.55729543084095 10.319422169607856 2.574080251928152 # C
407 1 45.55087950293953 11.660880364893064 2.2290212355946375 # C
408 1 46.754985942346984 12.30643343639631 2.0003022871820746 # C
409 1 49.16811906676132 9.612656870324995 2.7964471873775603 # C
410 1 47.96134662542343 10.275981751265594 2.568430214695227 # C
411 1 47.98001381545736 11.598295954337711 2.1017156608047007 # C
412 1 49.19870370563336 12.234585223881131 1.8619237186178663 # C
413 1 51.58053725756921 9.60158819028378 2.7958348512662856 # C
414 1 50.377191607213874 10.262668110687258 2.527962742497281 # C
415 1 50.38582826322745 11.597184112896253 2.066801826567755 # C
416 1 51.577383664527076 12.261683292169437 1.9698812393749492 # C
417 1 53.997789038742134 9.570696241883512 2.8454433136149286 # C
418 1 52.78911235705214 10.239520168473822 2.6317239531531915 # C
419 1 52.803749772774864 11.583589666536103 2.2254501911158613 # C
420 1 54.01531691059955 12.26864105099994 2.0843533698723613 # C
421 1 56.428861918013865 9.586523309221404 2.8893920858770206 # C
422 1 55.22538579957527 10.275576668772548 2.7014887954030167 # C
423 1 55.239394981408125 11.61068649231452 2.3375687798311446 # C
424 1 56.43405096421509 12.309718598102977 2.3130729396434333 # C
425 1 58.84824437628916 9.547991291079054 2.9334369150297808 # C
426 1 57.64405746480503 10.248270303432694 2.766354591208661 # C
427 1 57.63247387196036 11.629719433044531 2.4725107822567773 # C
428 1 58.843857040863085 12.289245675047653 2.320823785456427 # C
429 1 61.27420436587596 9.523127306689757 2.769717072755648 # C
430 1 60.06832440916669 10.220372080960079 2.771878029713968 # C
431 1 60.042960026137756 11.604797490921788 2.488028114363999 # C
432 1 61.260201007065504 12.300583781624132 2.348652132566876 # C
433 1 63.68868179022003 9.479518245926359 2.7055415951993855 # C
434 1 62.49769594454866 10.185351840341612 2.6508685876851605 # C
435 1 62.474196548521455 11.576470467704587 2.4595149201992115 # C
436 1 63.66158575710832 12.27824741608614 2.2402211707442783 # C
437 1 66.0956726892267 9.458536644970769 2.6622587481636804 # C
438 1 64.90929665403141 10.158953022563098 2.4839836332757987 # C
439 1 64.86911099629977 11.562719326808924 2.323670808391513 # C
440 1 66.0927949842145 12.247241829357424 2.250104750815305 # C
441 1 68.50709982515308 9.510029895781688 2.887246501293469 # C
442 1 67.29195930395416 10.169232385238708 2.607720132093193 # C
443 1 67.2740064929621 11.513176844913735 2.3280242325802982 # C
444 1 68.48430634903328 12.258279115509893 2.2895369641746446 # C
445 1 70.9077837192835 9.543048485008919 2.9914242372837805 # C
446 1 69.69812481251239 10.222012456309256 2.8584710350677653 # C
447 1 69.68343193157149 11.588272762737168 2.5404962234449475 # C
448 1 70.90029188486332 12.262263587437685 2.3847547004337035 # C
449 1 73.32234489610396 9.530373221534434 3.059647528116877 # C
450 1 72.11373462704162 10.24123086043784 2.866045204635093 # C
451 1 72.1077823769718 11.605322178186906 2.5213171283840206 # C
452 1 73.31878093962105 12.278188848311729 2.342249299472868 # C
453 1 75.73777158994467 9.586505435375928 3.050280134444258 # C
454 1 74.52468901677912 10.23563394295736 2.869985768395282 # C
455 1 74.51092156648836 11.582431595143783 2.500449231030331 # C
456 1 75.727576843318 12.257420173701421 2.2976978940105406 # C
457 1 78.15454376975796 9.615340470616399 3.0941331277308577 # C
458 1 76.93331655859767 10.286784693788697 2.862842623050844 # C
459 1 76.94894715980122 11.616387570948167 2.447352572855409 # C