LAMMPS data file -- atom_style atomic

2 atoms

1 atom types

-26.493052 123.506948 xlo xhi
-24.6609995 125.3390005 ylo yhi
-50 50 zlo zhi

Masses

1 1.008 # H

Atoms # atomic

1 1 49.95042756179312 50.35259872466467 1.8467642796799868 # H
2 1 50.696527173912855 50.35259872466467 1.8467642796799868 # H
